TITLE = STREAM FUNCTION
VARIABLES = "x", "y", "phi"
Zone T = "BLOCK1", i=101, j=101, F=POINT


0	0	0
0	0.01	0
0	0.02	0
0	0.03	0
0	0.04	0
0	0.05	0
0	0.06	0
0	0.07	0
0	0.08	0
0	0.09	0
0	0.1	0
0	0.11	0
0	0.12	0
0	0.13	0
0	0.14	0
0	0.15	0
0	0.16	0
0	0.17	0
0	0.18	0
0	0.19	0
0	0.2	0
0	0.21	0
0	0.22	0
0	0.23	0
0	0.24	0
0	0.25	0
0	0.26	0
0	0.27	0
0	0.28	0
0	0.29	0
0	0.3	0
0	0.31	0
0	0.32	0
0	0.33	0
0	0.34	0
0	0.35	0
0	0.36	0
0	0.37	0
0	0.38	0
0	0.39	0
0	0.4	0
0	0.41	0
0	0.42	0
0	0.43	0
0	0.44	0
0	0.45	0
0	0.46	0
0	0.47	0
0	0.48	0
0	0.49	0
0	0.5	0
0	0.51	0
0	0.52	0
0	0.53	0
0	0.54	0
0	0.55	0
0	0.56	0
0	0.57	0
0	0.58	0
0	0.59	0
0	0.6	0
0	0.61	0
0	0.62	0
0	0.63	0
0	0.64	0
0	0.65	0
0	0.66	0
0	0.67	0
0	0.68	0
0	0.69	0
0	0.7	0
0	0.71	0
0	0.72	0
0	0.73	0
0	0.74	0
0	0.75	0
0	0.76	0
0	0.77	0
0	0.78	0
0	0.79	0
0	0.8	0
0	0.81	0
0	0.82	0
0	0.83	0
0	0.84	0
0	0.85	0
0	0.86	0
0	0.87	0
0	0.88	0
0	0.89	0
0	0.9	0
0	0.91	0
0	0.92	0
0	0.93	0
0	0.94	0
0	0.95	0
0	0.96	0
0	0.97	0
0	0.98	0
0	0.99	0
0	1	0
0.01	0	0
0.01	0.01	1.29009e-007
0.01	0.02	5.47066e-007
0.01	0.03	1.10319e-006
0.01	0.04	1.66061e-006
0.01	0.05	2.1203e-006
0.01	0.06	2.41258e-006
0.01	0.07	2.48706e-006
0.01	0.08	2.30557e-006
0.01	0.09	1.83783e-006
0.01	0.1	1.05882e-006
0.01	0.11	-5.26683e-008
0.01	0.12	-1.51482e-006
0.01	0.13	-3.34322e-006
0.01	0.14	-5.55091e-006
0.01	0.15	-8.14842e-006
0.01	0.16	-1.11435e-005
0.01	0.17	-1.45412e-005
0.01	0.18	-1.83433e-005
0.01	0.19	-2.25483e-005
0.01	0.2	-2.71514e-005
0.01	0.21	-3.21439e-005
0.01	0.22	-3.75136e-005
0.01	0.23	-4.32443e-005
0.01	0.24	-4.93161e-005
0.01	0.25	-5.57054e-005
0.01	0.26	-6.23847e-005
0.01	0.27	-6.93233e-005
0.01	0.28	-7.64869e-005
0.01	0.29	-8.38383e-005
0.01	0.3	-9.13379e-005
0.01	0.31	-9.89433e-005
0.01	0.32	-0.000106611
0.01	0.33	-0.000114294
0.01	0.34	-0.000121948
0.01	0.35	-0.000129524
0.01	0.36	-0.000136976
0.01	0.37	-0.000144258
0.01	0.38	-0.000151324
0.01	0.39	-0.00015813
0.01	0.4	-0.000164634
0.01	0.41	-0.000170796
0.01	0.42	-0.000176581
0.01	0.43	-0.000181953
0.01	0.44	-0.000186885
0.01	0.45	-0.000191348
0.01	0.46	-0.000195321
0.01	0.47	-0.000198786
0.01	0.48	-0.000201728
0.01	0.49	-0.000204139
0.01	0.5	-0.000206013
0.01	0.51	-0.00020735
0.01	0.52	-0.000208152
0.01	0.53	-0.000208428
0.01	0.54	-0.000208188
0.01	0.55	-0.000207449
0.01	0.56	-0.000206229
0.01	0.57	-0.00020455
0.01	0.58	-0.000202437
0.01	0.59	-0.000199919
0.01	0.6	-0.000197026
0.01	0.61	-0.00019379
0.01	0.62	-0.000190247
0.01	0.63	-0.000186432
0.01	0.64	-0.000182384
0.01	0.65	-0.000178142
0.01	0.66	-0.000173745
0.01	0.67	-0.000169236
0.01	0.68	-0.000164655
0.01	0.69	-0.000160047
0.01	0.7	-0.000155454
0.01	0.71	-0.000150923
0.01	0.72	-0.0001465
0.01	0.73	-0.000142235
0.01	0.74	-0.000138179
0.01	0.75	-0.00013439
0.01	0.76	-0.00013093
0.01	0.77	-0.00012787
0.01	0.78	-0.000125291
0.01	0.79	-0.000123292
0.01	0.8	-0.000121992
0.01	0.81	-0.00012154
0.01	0.82	-0.000122124
0.01	0.83	-0.000123987
0.01	0.84	-0.000127448
0.01	0.85	-0.000132927
0.01	0.86	-0.000140983
0.01	0.87	-0.000152365
0.01	0.88	-0.000168084
0.01	0.89	-0.000189509
0.01	0.9	-0.000218523
0.01	0.91	-0.000257742
0.01	0.92	-0.000310903
0.01	0.93	-0.000383531
0.01	0.94	-0.000484184
0.01	0.95	-0.000626709
0.01	0.96	-0.000833713
0.01	0.97	-0.0011378
0.01	0.98	-0.00155305
0.01	0.99	-0.00184518
0.01	1	0
0.02	0	0
0.02	0.01	5.44029e-007
0.02	0.02	1.84762e-006
0.02	0.03	3.4707e-006
0.02	0.04	5.02434e-006
0.02	0.05	6.20258e-006
0.02	0.06	6.7717e-006
0.02	0.07	6.55196e-006
0.02	0.08	5.40193e-006
0.02	0.09	3.20733e-006
0.02	0.1	-1.26432e-007
0.02	0.11	-4.6789e-006
0.02	0.12	-1.05174e-005
0.02	0.13	-1.76983e-005
0.02	0.14	-2.62681e-005
0.02	0.15	-3.62629e-005
0.02	0.16	-4.77087e-005
0.02	0.17	-6.06204e-005
0.02	0.18	-7.50018e-005
0.02	0.19	-9.08447e-005
0.02	0.2	-0.000108128
0.02	0.21	-0.000126819
0.02	0.22	-0.000146871
0.02	0.23	-0.000168224
0.02	0.24	-0.000190804
0.02	0.25	-0.000214527
0.02	0.26	-0.000239294
0.02	0.27	-0.000264995
0.02	0.28	-0.000291507
0.02	0.29	-0.0003187
0.02	0.3	-0.000346433
0.02	0.31	-0.000374556
0.02	0.32	-0.000402916
0.02	0.33	-0.000431352
0.02	0.34	-0.000459701
0.02	0.35	-0.000487796
0.02	0.36	-0.000515473
0.02	0.37	-0.000542569
0.02	0.38	-0.000568921
0.02	0.39	-0.000594374
0.02	0.4	-0.000618778
0.02	0.41	-0.000641992
0.02	0.42	-0.000663883
0.02	0.43	-0.000684328
0.02	0.44	-0.000703217
0.02	0.45	-0.000720452
0.02	0.46	-0.000735948
0.02	0.47	-0.000749633
0.02	0.48	-0.000761453
0.02	0.49	-0.000771365
0.02	0.5	-0.000779342
0.02	0.51	-0.000785374
0.02	0.52	-0.000789462
0.02	0.53	-0.000791627
0.02	0.54	-0.000791898
0.02	0.55	-0.000790322
0.02	0.56	-0.000786958
0.02	0.57	-0.000781877
0.02	0.58	-0.000775161
0.02	0.59	-0.000766903
0.02	0.6	-0.000757208
0.02	0.61	-0.000746187
0.02	0.62	-0.00073396
0.02	0.63	-0.000720656
0.02	0.64	-0.000706407
0.02	0.65	-0.000691356
0.02	0.66	-0.000675645
0.02	0.67	-0.000659427
0.02	0.68	-0.000642855
0.02	0.69	-0.000626089
0.02	0.7	-0.000609294
0.02	0.71	-0.000592641
0.02	0.72	-0.000576308
0.02	0.73	-0.000560481
0.02	0.74	-0.000545361
0.02	0.75	-0.000531164
0.02	0.76	-0.00051813
0.02	0.77	-0.000506527
0.02	0.78	-0.000496665
0.02	0.79	-0.000488911
0.02	0.8	-0.000483704
0.02	0.81	-0.000481585
0.02	0.82	-0.000483228
0.02	0.83	-0.00048949
0.02	0.84	-0.000501466
0.02	0.85	-0.000520573
0.02	0.86	-0.000548652
0.02	0.87	-0.000588107
0.02	0.88	-0.000642083
0.02	0.89	-0.000714705
0.02	0.9	-0.00081139
0.02	0.91	-0.000939275
0.02	0.92	-0.0011078
0.02	0.93	-0.0013295
0.02	0.94	-0.00162092
0.02	0.95	-0.00200291
0.02	0.96	-0.00249674
0.02	0.97	-0.00310126
0.02	0.98	-0.00369178
0.02	0.99	-0.00360273
0.02	1	0
0.03	0	0
0.03	0.01	1.09211e-006
0.03	0.02	3.4599e-006
0.03	0.03	6.26638e-006
0.03	0.04	8.80304e-006
0.03	0.05	1.04971e-005
0.03	0.06	1.08932e-005
0.03	0.07	9.6282e-006
0.03	0.08	6.40927e-006
0.03	0.09	9.96123e-007
0.03	0.1	-6.8111e-006
0.03	0.11	-1.71801e-005
0.03	0.12	-3.02516e-005
0.03	0.13	-4.61424e-005
0.03	0.14	-6.49467e-005
0.03	0.15	-8.67365e-005
0.03	0.16	-0.000111561
0.03	0.17	-0.000139448
0.03	0.18	-0.000170399
0.03	0.19	-0.000204393
0.03	0.2	-0.000241381
0.03	0.21	-0.000281291
0.03	0.22	-0.000324021
0.03	0.23	-0.000369447
0.03	0.24	-0.000417414
0.03	0.25	-0.000467745
0.03	0.26	-0.000520235
0.03	0.27	-0.000574659
0.03	0.28	-0.000630768
0.03	0.29	-0.000688292
0.03	0.3	-0.000746946
0.03	0.31	-0.000806426
0.03	0.32	-0.000866419
0.03	0.33	-0.000926599
0.03	0.34	-0.000986635
0.03	0.35	-0.00104619
0.03	0.36	-0.00110493
0.03	0.37	-0.00116252
0.03	0.38	-0.00121863
0.03	0.39	-0.00127295
0.03	0.4	-0.00132516
0.03	0.41	-0.00137498
0.03	0.42	-0.00142212
0.03	0.43	-0.00146634
0.03	0.44	-0.0015074
0.03	0.45	-0.0015451
0.03	0.46	-0.00157924
0.03	0.47	-0.00160968
0.03	0.48	-0.00163628
0.03	0.49	-0.00165896
0.03	0.5	-0.00167763
0.03	0.51	-0.00169227
0.03	0.52	-0.00170286
0.03	0.53	-0.00170942
0.03	0.54	-0.00171201
0.03	0.55	-0.0017107
0.03	0.56	-0.0017056
0.03	0.57	-0.00169683
0.03	0.58	-0.00168457
0.03	0.59	-0.00166897
0.03	0.6	-0.00165026
0.03	0.61	-0.00162863
0.03	0.62	-0.00160435
0.03	0.63	-0.00157766
0.03	0.64	-0.00154884
0.03	0.65	-0.00151816
0.03	0.66	-0.00148594
0.03	0.67	-0.00145249
0.03	0.68	-0.00141812
0.03	0.69	-0.00138318
0.03	0.7	-0.00134801
0.03	0.71	-0.00131299
0.03	0.72	-0.00127848
0.03	0.73	-0.00124489
0.03	0.74	-0.00121265
0.03	0.75	-0.00118223
0.03	0.76	-0.00115413
0.03	0.77	-0.00112894
0.03	0.78	-0.00110729
0.03	0.79	-0.00108997
0.03	0.8	-0.00107787
0.03	0.81	-0.00107211
0.03	0.82	-0.00107403
0.03	0.83	-0.00108533
0.03	0.84	-0.00110813
0.03	0.85	-0.00114512
0.03	0.86	-0.00119974
0.03	0.87	-0.00127636
0.03	0.88	-0.00138054
0.03	0.89	-0.00151933
0.03	0.9	-0.00170161
0.03	0.91	-0.00193841
0.03	0.92	-0.00224319
0.03	0.93	-0.0026317
0.03	0.94	-0.00312073
0.03	0.95	-0.00372324
0.03	0.96	-0.00443269
0.03	0.97	-0.00517452
0.03	0.98	-0.0056551
0.03	0.99	-0.00489783
0.03	1	0
0.04	0	0
0.04	0.01	1.64085e-006
0.04	0.02	5.01537e-006
0.04	0.03	8.8302e-006
0.04	0.04	1.2015e-005
0.04	0.05	1.36948e-005
0.04	0.06	1.31578e-005
0.04	0.07	9.82334e-006
0.04	0.08	3.21437e-006
0.04	0.09	-7.0651e-006
0.04	0.1	-2.13462e-005
0.04	0.11	-3.99066e-005
0.04	0.12	-6.29781e-005
0.04	0.13	-9.07512e-005
0.04	0.14	-0.000123377
0.04	0.15	-0.00016097
0.04	0.16	-0.000203605
0.04	0.17	-0.000251318
0.04	0.18	-0.000304107
0.04	0.19	-0.000361927
0.04	0.2	-0.000424693
0.04	0.21	-0.000492278
0.04	0.22	-0.000564511
0.04	0.23	-0.000641179
0.04	0.24	-0.000722029
0.04	0.25	-0.000806766
0.04	0.26	-0.000895056
0.04	0.27	-0.000986527
0.04	0.28	-0.00108078
0.04	0.29	-0.00117736
0.04	0.3	-0.00127583
0.04	0.31	-0.00137568
0.04	0.32	-0.00147641
0.04	0.33	-0.00157749
0.04	0.34	-0.00167839
0.04	0.35	-0.00177856
0.04	0.36	-0.00187747
0.04	0.37	-0.00197457
0.04	0.38	-0.00206933
0.04	0.39	-0.00216123
0.04	0.4	-0.00224978
0.04	0.41	-0.00233449
0.04	0.42	-0.00241492
0.04	0.43	-0.00249063
0.04	0.44	-0.00256126
0.04	0.45	-0.00262643
0.04	0.46	-0.00268585
0.04	0.47	-0.00273924
0.04	0.48	-0.00278638
0.04	0.49	-0.00282709
0.04	0.5	-0.00286124
0.04	0.51	-0.00288874
0.04	0.52	-0.00290956
0.04	0.53	-0.00292371
0.04	0.54	-0.00293123
0.04	0.55	-0.00293225
0.04	0.56	-0.00292689
0.04	0.57	-0.00291536
0.04	0.58	-0.00289789
0.04	0.59	-0.00287474
0.04	0.6	-0.00284623
0.04	0.61	-0.0028127
0.04	0.62	-0.00277453
0.04	0.63	-0.00273213
0.04	0.64	-0.00268594
0.04	0.65	-0.00263641
0.04	0.66	-0.00258404
0.04	0.67	-0.00252934
0.04	0.68	-0.00247285
0.04	0.69	-0.00241512
0.04	0.7	-0.00235673
0.04	0.71	-0.00229831
0.04	0.72	-0.00224048
0.04	0.73	-0.00218394
0.04	0.74	-0.00212939
0.04	0.75	-0.00207763
0.04	0.76	-0.00202951
0.04	0.77	-0.00198599
0.04	0.78	-0.00194815
0.04	0.79	-0.00191724
0.04	0.8	-0.00189474
0.04	0.81	-0.0018824
0.04	0.82	-0.00188235
0.04	0.83	-0.00189721
0.04	0.84	-0.00193019
0.04	0.85	-0.00198531
0.04	0.86	-0.00206756
0.04	0.87	-0.00218315
0.04	0.88	-0.00233979
0.04	0.89	-0.00254688
0.04	0.9	-0.00281573
0.04	0.91	-0.00315958
0.04	0.92	-0.00359301
0.04	0.93	-0.00413038
0.04	0.94	-0.00478149
0.04	0.95	-0.00554099
0.04	0.96	-0.00636191
0.04	0.97	-0.00708886
0.04	0.98	-0.00728585
0.04	0.99	-0.00581013
0.04	1	0
0.05	0	0
0.05	0.01	2.10296e-006
0.05	0.02	6.25257e-006
0.05	0.03	1.0686e-005
0.05	0.04	1.39521e-005
0.05	0.05	1.48549e-005
0.05	0.06	1.24068e-005
0.05	0.07	5.78962e-006
0.05	0.08	-5.67826e-006
0.05	0.09	-2.25675e-005
0.05	0.1	-4.53575e-005
0.05	0.11	-7.44503e-005
0.05	0.12	-0.00011018
0.05	0.13	-0.000152819
0.05	0.14	-0.000202581
0.05	0.15	-0.000259623
0.05	0.16	-0.000324044
0.05	0.17	-0.000395889
0.05	0.18	-0.000475141
0.05	0.19	-0.000561726
0.05	0.2	-0.00065551
0.05	0.21	-0.0007563
0.05	0.22	-0.000863839
0.05	0.23	-0.000977816
0.05	0.24	-0.00109786
0.05	0.25	-0.00122353
0.05	0.26	-0.00135435
0.05	0.27	-0.00148979
0.05	0.28	-0.00162927
0.05	0.29	-0.00177215
0.05	0.3	-0.00191777
0.05	0.31	-0.00206543
0.05	0.32	-0.00221442
0.05	0.33	-0.00236397
0.05	0.34	-0.00251333
0.05	0.35	-0.00266172
0.05	0.36	-0.00280838
0.05	0.37	-0.00295253
0.05	0.38	-0.00309341
0.05	0.39	-0.00323028
0.05	0.4	-0.00336242
0.05	0.41	-0.00348915
0.05	0.42	-0.0036098
0.05	0.43	-0.00372378
0.05	0.44	-0.0038305
0.05	0.45	-0.00392947
0.05	0.46	-0.0040202
0.05	0.47	-0.0041023
0.05	0.48	-0.00417543
0.05	0.49	-0.00423929
0.05	0.5	-0.00429368
0.05	0.51	-0.00433844
0.05	0.52	-0.00437349
0.05	0.53	-0.00439881
0.05	0.54	-0.00441444
0.05	0.55	-0.0044205
0.05	0.56	-0.00441718
0.05	0.57	-0.00440469
0.05	0.58	-0.00438336
0.05	0.59	-0.00435354
0.05	0.6	-0.00431565
0.05	0.61	-0.00427015
0.05	0.62	-0.00421757
0.05	0.63	-0.00415847
0.05	0.64	-0.00409347
0.05	0.65	-0.00402323
0.05	0.66	-0.00394844
0.05	0.67	-0.00386984
0.05	0.68	-0.0037882
0.05	0.69	-0.00370433
0.05	0.7	-0.00361909
0.05	0.71	-0.00353338
0.05	0.72	-0.00344813
0.05	0.73	-0.00336435
0.05	0.74	-0.0032831
0.05	0.75	-0.00320553
0.05	0.76	-0.0031329
0.05	0.77	-0.00306661
0.05	0.78	-0.0030082
0.05	0.79	-0.00295948
0.05	0.8	-0.00292251
0.05	0.81	-0.00289974
0.05	0.82	-0.00289408
0.05	0.83	-0.00290904
0.05	0.84	-0.00294888
0.05	0.85	-0.00301879
0.05	0.86	-0.00312511
0.05	0.87	-0.00327554
0.05	0.88	-0.00347931
0.05	0.89	-0.00374735
0.05	0.9	-0.00409217
0.05	0.91	-0.00452734
0.05	0.92	-0.00506605
0.05	0.93	-0.00571772
0.05	0.94	-0.00648076
0.05	0.95	-0.00732674
0.05	0.96	-0.00816591
0.05	0.97	-0.00877004
0.05	0.98	-0.00860008
0.05	0.99	-0.00645387
0.05	1	0
0.06	0	0
0.06	0.01	2.42714e-006
0.06	0.02	7.00379e-006
0.06	0.03	1.15165e-005
0.06	0.04	1.41349e-005
0.06	0.05	1.3337e-005
0.06	0.06	7.85158e-006
0.06	0.07	-3.38684e-006
0.06	0.08	-2.12746e-005
0.06	0.09	-4.65674e-005
0.06	0.1	-7.99023e-005
0.06	0.11	-0.000121814
0.06	0.12	-0.000172743
0.06	0.13	-0.000233049
0.06	0.14	-0.000303009
0.06	0.15	-0.00038282
0.06	0.16	-0.000472606
0.06	0.17	-0.000572409
0.06	0.18	-0.000682196
0.06	0.19	-0.000801853
0.06	0.2	-0.000931187
0.06	0.21	-0.00106993
0.06	0.22	-0.00121772
0.06	0.23	-0.00137414
0.06	0.24	-0.00153868
0.06	0.25	-0.00171076
0.06	0.26	-0.00188974
0.06	0.27	-0.0020749
0.06	0.28	-0.00226546
0.06	0.29	-0.0024606
0.06	0.3	-0.00265944
0.06	0.31	-0.00286105
0.06	0.32	-0.00306447
0.06	0.33	-0.00326873
0.06	0.34	-0.00347281
0.06	0.35	-0.00367569
0.06	0.36	-0.00387637
0.06	0.37	-0.00407382
0.06	0.38	-0.00426704
0.06	0.39	-0.00445504
0.06	0.4	-0.00463689
0.06	0.41	-0.00481166
0.06	0.42	-0.00497849
0.06	0.43	-0.00513654
0.06	0.44	-0.00528507
0.06	0.45	-0.00542338
0.06	0.46	-0.00555082
0.06	0.47	-0.00566684
0.06	0.48	-0.00577096
0.06	0.49	-0.00586278
0.06	0.5	-0.00594198
0.06	0.51	-0.00600831
0.06	0.52	-0.00606163
0.06	0.53	-0.00610187
0.06	0.54	-0.00612905
0.06	0.55	-0.00614329
0.06	0.56	-0.00614477
0.06	0.57	-0.00613376
0.06	0.58	-0.00611064
0.06	0.59	-0.00607583
0.06	0.6	-0.00602984
0.06	0.61	-0.00597326
0.06	0.62	-0.00590676
0.06	0.63	-0.00583106
0.06	0.64	-0.00574694
0.06	0.65	-0.00565526
0.06	0.66	-0.00555693
0.06	0.67	-0.00545292
0.06	0.68	-0.00534427
0.06	0.69	-0.00523204
0.06	0.7	-0.00511738
0.06	0.71	-0.0050015
0.06	0.72	-0.00488566
0.06	0.73	-0.00477122
0.06	0.74	-0.00465961
0.06	0.75	-0.00455238
0.06	0.76	-0.00445122
0.06	0.77	-0.00435798
0.06	0.78	-0.00427472
0.06	0.79	-0.00420378
0.06	0.8	-0.00414783
0.06	0.81	-0.00410998
0.06	0.82	-0.00409389
0.06	0.83	-0.00410386
0.06	0.84	-0.00414506
0.06	0.85	-0.00422363
0.06	0.86	-0.00434694
0.06	0.87	-0.0045237
0.06	0.88	-0.00476407
0.06	0.89	-0.00507965
0.06	0.9	-0.005483
0.06	0.91	-0.00598662
0.06	0.92	-0.00660048
0.06	0.93	-0.00732703
0.06	0.94	-0.00815127
0.06	0.95	-0.00902085
0.06	0.96	-0.0098061
0.06	0.97	-0.0102191
0.06	0.98	-0.00965415
0.06	0.99	-0.00691652
0.06	1	0
0.07	0	0
0.07	0.01	2.58651e-006
0.07	0.02	7.17198e-006
0.07	0.03	1.11291e-005
0.07	0.04	1.22646e-005
0.07	0.05	8.7369e-006
0.07	0.06	-1.00733e-006
0.07	0.07	-1.82821e-005
0.07	0.08	-4.42013e-005
0.07	0.09	-7.97092e-005
0.07	0.1	-0.000125604
0.07	0.11	-0.000182554
0.07	0.12	-0.00025111
0.07	0.13	-0.000331716
0.07	0.14	-0.000424711
0.07	0.15	-0.000530332
0.07	0.16	-0.000648716
0.07	0.17	-0.000779903
0.07	0.18	-0.000923831
0.07	0.19	-0.00108034
0.07	0.2	-0.00124917
0.07	0.21	-0.00142996
0.07	0.22	-0.00162225
0.07	0.23	-0.00182549
0.07	0.24	-0.00203902
0.07	0.25	-0.00226212
0.07	0.26	-0.00249396
0.07	0.27	-0.00273364
0.07	0.28	-0.00298017
0.07	0.29	-0.00323251
0.07	0.3	-0.00348956
0.07	0.31	-0.00375017
0.07	0.32	-0.00401312
0.07	0.33	-0.0042772
0.07	0.34	-0.00454114
0.07	0.35	-0.00480367
0.07	0.36	-0.00506353
0.07	0.37	-0.00531943
0.07	0.38	-0.00557012
0.07	0.39	-0.00581439
0.07	0.4	-0.00605103
0.07	0.41	-0.00627889
0.07	0.42	-0.00649688
0.07	0.43	-0.00670397
0.07	0.44	-0.00689917
0.07	0.45	-0.00708161
0.07	0.46	-0.00725046
0.07	0.47	-0.007405
0.07	0.48	-0.0075446
0.07	0.49	-0.00766872
0.07	0.5	-0.00777693
0.07	0.51	-0.00786888
0.07	0.52	-0.00794434
0.07	0.53	-0.00800319
0.07	0.54	-0.00804541
0.07	0.55	-0.00807107
0.07	0.56	-0.00808037
0.07	0.57	-0.00807361
0.07	0.58	-0.00805117
0.07	0.59	-0.00801355
0.07	0.6	-0.00796136
0.07	0.61	-0.00789528
0.07	0.62	-0.00781609
0.07	0.63	-0.00772467
0.07	0.64	-0.00762196
0.07	0.65	-0.00750903
0.07	0.66	-0.00738698
0.07	0.67	-0.00725701
0.07	0.68	-0.00712042
0.07	0.69	-0.00697854
0.07	0.7	-0.00683282
0.07	0.71	-0.00668478
0.07	0.72	-0.00653602
0.07	0.73	-0.00638825
0.07	0.74	-0.00624331
0.07	0.75	-0.00610313
0.07	0.76	-0.00596986
0.07	0.77	-0.00584579
0.07	0.78	-0.00573351
0.07	0.79	-0.00563587
0.07	0.8	-0.00555613
0.07	0.81	-0.00549801
0.07	0.82	-0.00546579
0.07	0.83	-0.00546448
0.07	0.84	-0.00549995
0.07	0.85	-0.00557908
0.07	0.86	-0.00570988
0.07	0.87	-0.00590167
0.07	0.88	-0.00616497
0.07	0.89	-0.00651133
0.07	0.9	-0.00695255
0.07	0.91	-0.00749906
0.07	0.92	-0.00815659
0.07	0.93	-0.00891971
0.07	0.94	-0.00975967
0.07	0.95	-0.0106014
0.07	0.96	-0.0112804
0.07	0.97	-0.0114628
0.07	0.98	-0.0105052
0.07	0.99	-0.0072576
0.07	1	0
0.08	0	0
0.08	0.01	2.56992e-006
0.08	0.02	6.70983e-006
0.08	0.03	9.4227e-006
0.08	0.04	8.17799e-006
0.08	0.05	8.29282e-007
0.08	0.06	-1.44499e-005
0.08	0.07	-3.9217e-005
0.08	0.08	-7.48002e-005
0.08	0.09	-0.00012233
0.08	0.1	-0.000182764
0.08	0.11	-0.000256904
0.08	0.12	-0.000345407
0.08	0.13	-0.000448798
0.08	0.14	-0.000567473
0.08	0.15	-0.000701704
0.08	0.16	-0.000851639
0.08	0.17	-0.0010173
0.08	0.18	-0.0011986
0.08	0.19	-0.00139532
0.08	0.2	-0.00160711
0.08	0.21	-0.00183353
0.08	0.22	-0.00207399
0.08	0.23	-0.00232782
0.08	0.24	-0.00259421
0.08	0.25	-0.00287224
0.08	0.26	-0.00316093
0.08	0.27	-0.00345916
0.08	0.28	-0.00376575
0.08	0.29	-0.00407942
0.08	0.3	-0.00439885
0.08	0.31	-0.00472264
0.08	0.32	-0.00504933
0.08	0.33	-0.00537745
0.08	0.34	-0.00570549
0.08	0.35	-0.0060319
0.08	0.36	-0.00635517
0.08	0.37	-0.00667376
0.08	0.38	-0.00698616
0.08	0.39	-0.00729089
0.08	0.4	-0.00758652
0.08	0.41	-0.00787165
0.08	0.42	-0.00814496
0.08	0.43	-0.00840519
0.08	0.44	-0.00865115
0.08	0.45	-0.00888177
0.08	0.46	-0.00909603
0.08	0.47	-0.00929304
0.08	0.48	-0.009472
0.08	0.49	-0.00963225
0.08	0.5	-0.0097732
0.08	0.51	-0.00989442
0.08	0.52	-0.00999558
0.08	0.53	-0.0100765
0.08	0.54	-0.010137
0.08	0.55	-0.0101773
0.08	0.56	-0.0101974
0.08	0.57	-0.0101977
0.08	0.58	-0.0101786
0.08	0.59	-0.0101406
0.08	0.6	-0.0100844
0.08	0.61	-0.0100108
0.08	0.62	-0.00992065
0.08	0.63	-0.00981494
0.08	0.64	-0.00969479
0.08	0.65	-0.00956142
0.08	0.66	-0.00941615
0.08	0.67	-0.0092604
0.08	0.68	-0.00909569
0.08	0.69	-0.00892364
0.08	0.7	-0.00874597
0.08	0.71	-0.00856451
0.08	0.72	-0.00838121
0.08	0.73	-0.00819813
0.08	0.74	-0.00801747
0.08	0.75	-0.00784159
0.08	0.76	-0.00767305
0.08	0.77	-0.00751461
0.08	0.78	-0.00736932
0.08	0.79	-0.00724054
0.08	0.8	-0.00713205
0.08	0.81	-0.00704808
0.08	0.82	-0.0069935
0.08	0.83	-0.00697385
0.08	0.84	-0.00699551
0.08	0.85	-0.00706584
0.08	0.86	-0.00719325
0.08	0.87	-0.00738723
0.08	0.88	-0.00765826
0.08	0.89	-0.0080173
0.08	0.9	-0.00847485
0.08	0.91	-0.00903872
0.08	0.92	-0.00970995
0.08	0.93	-0.0104751
0.08	0.94	-0.0112921
0.08	0.95	-0.0120656
0.08	0.96	-0.0126019
0.08	0.97	-0.0125335
0.08	0.98	-0.0112007
0.08	0.99	-0.00751633
0.08	1	0
0.09	0	0
0.09	0.01	2.37592e-006
0.09	0.02	5.60319e-006
0.09	0.03	6.35998e-006
0.09	0.04	1.80853e-006
0.09	0.05	-1.04818e-005
0.09	0.06	-3.25968e-005
0.09	0.07	-6.63267e-005
0.09	0.08	-0.000113207
0.09	0.09	-0.000174548
0.09	0.1	-0.00025146
0.09	0.11	-0.000344872
0.09	0.12	-0.000455545
0.09	0.13	-0.000584079
0.09	0.14	-0.000730921
0.09	0.15	-0.00089637
0.09	0.16	-0.00108058
0.09	0.17	-0.00128355
0.09	0.18	-0.00150514
0.09	0.19	-0.00174508
0.09	0.2	-0.00200294
0.09	0.21	-0.00227816
0.09	0.22	-0.00257005
0.09	0.23	-0.00287776
0.09	0.24	-0.00320034
0.09	0.25	-0.00353671
0.09	0.26	-0.00388566
0.09	0.27	-0.0042459
0.09	0.28	-0.00461602
0.09	0.29	-0.00499452
0.09	0.3	-0.00537983
0.09	0.31	-0.0057703
0.09	0.32	-0.00616425
0.09	0.33	-0.00655993
0.09	0.34	-0.00695556
0.09	0.35	-0.00734935
0.09	0.36	-0.00773952
0.09	0.37	-0.00812427
0.09	0.38	-0.00850183
0.09	0.39	-0.00887048
0.09	0.4	-0.00922853
0.09	0.41	-0.00957435
0.09	0.42	-0.00990637
0.09	0.43	-0.0102231
0.09	0.44	-0.0105232
0.09	0.45	-0.0108054
0.09	0.46	-0.0110683
0.09	0.47	-0.0113111
0.09	0.48	-0.0115327
0.09	0.49	-0.0117323
0.09	0.5	-0.0119092
0.09	0.51	-0.0120629
0.09	0.52	-0.0121928
0.09	0.53	-0.0122988
0.09	0.54	-0.0123807
0.09	0.55	-0.0124384
0.09	0.56	-0.0124722
0.09	0.57	-0.0124823
0.09	0.58	-0.0124691
0.09	0.59	-0.0124332
0.09	0.6	-0.0123753
0.09	0.61	-0.0122963
0.09	0.62	-0.0121971
0.09	0.63	-0.0120788
0.09	0.64	-0.0119427
0.09	0.65	-0.0117901
0.09	0.66	-0.0116226
0.09	0.67	-0.0114417
0.09	0.68	-0.0112493
0.09	0.69	-0.0110471
0.09	0.7	-0.0108372
0.09	0.71	-0.0106216
0.09	0.72	-0.0104027
0.09	0.73	-0.0101829
0.09	0.74	-0.00996466
0.09	0.75	-0.0097508
0.09	0.76	-0.00954424
0.09	0.77	-0.0093482
0.09	0.78	-0.00916615
0.09	0.79	-0.00900191
0.09	0.8	-0.00885969
0.09	0.81	-0.00874422
0.09	0.82	-0.00866078
0.09	0.83	-0.00861532
0.09	0.84	-0.00861459
0.09	0.85	-0.00866621
0.09	0.86	-0.0087787
0.09	0.87	-0.0089615
0.09	0.88	-0.00922466
0.09	0.89	-0.00957829
0.09	0.9	-0.0100312
0.09	0.91	-0.0105884
0.09	0.92	-0.0112461
0.09	0.93	-0.0119833
0.09	0.94	-0.0127456
0.09	0.95	-0.0134198
0.09	0.96	-0.0137888
0.09	0.97	-0.0134619
0.09	0.98	-0.0117778
0.09	0.99	-0.00771836
0.09	1	0
0.1	0	0
0.1	0.01	2.0088e-006
0.1	0.02	3.8588e-006
0.1	0.03	1.94543e-006
0.1	0.04	-6.8449e-006
0.1	0.05	-2.52038e-005
0.1	0.06	-5.54585e-005
0.1	0.07	-9.96185e-005
0.1	0.08	-0.000159414
0.1	0.09	-0.000236327
0.1	0.1	-0.000331613
0.1	0.11	-0.000446321
0.1	0.12	-0.000581305
0.1	0.13	-0.000737233
0.1	0.14	-0.000914598
0.1	0.15	-0.00111372
0.1	0.16	-0.00133474
0.1	0.17	-0.00157763
0.1	0.18	-0.00184222
0.1	0.19	-0.00212814
0.1	0.2	-0.00243489
0.1	0.21	-0.00276178
0.1	0.22	-0.00310798
0.1	0.23	-0.00347252
0.1	0.24	-0.00385426
0.1	0.25	-0.00425194
0.1	0.26	-0.00466417
0.1	0.27	-0.00508943
0.1	0.28	-0.00552608
0.1	0.29	-0.00597241
0.1	0.3	-0.0064266
0.1	0.31	-0.00688675
0.1	0.32	-0.00735092
0.1	0.33	-0.0078171
0.1	0.34	-0.00828326
0.1	0.35	-0.00874734
0.1	0.36	-0.00920729
0.1	0.37	-0.00966107
0.1	0.38	-0.0101066
0.1	0.39	-0.010542
0.1	0.4	-0.0109653
0.1	0.41	-0.0113745
0.1	0.42	-0.011768
0.1	0.43	-0.012144
0.1	0.44	-0.012501
0.1	0.45	-0.0128373
0.1	0.46	-0.0131517
0.1	0.47	-0.0134429
0.1	0.48	-0.0137098
0.1	0.49	-0.0139514
0.1	0.5	-0.0141669
0.1	0.51	-0.0143556
0.1	0.52	-0.014517
0.1	0.53	-0.0146506
0.1	0.54	-0.0147564
0.1	0.55	-0.0148342
0.1	0.56	-0.0148841
0.1	0.57	-0.0149064
0.1	0.58	-0.0149014
0.1	0.59	-0.0148699
0.1	0.6	-0.0148125
0.1	0.61	-0.0147302
0.1	0.62	-0.0146238
0.1	0.63	-0.0144948
0.1	0.64	-0.0143443
0.1	0.65	-0.014174
0.1	0.66	-0.0139854
0.1	0.67	-0.0137804
0.1	0.68	-0.0135609
0.1	0.69	-0.013329
0.1	0.7	-0.0130869
0.1	0.71	-0.0128371
0.1	0.72	-0.012582
0.1	0.73	-0.0123244
0.1	0.74	-0.0120671
0.1	0.75	-0.0118134
0.1	0.76	-0.0115665
0.1	0.77	-0.0113299
0.1	0.78	-0.0111076
0.1	0.79	-0.0109038
0.1	0.8	-0.010723
0.1	0.81	-0.0105704
0.1	0.82	-0.0104516
0.1	0.83	-0.0103728
0.1	0.84	-0.010341
0.1	0.85	-0.0103639
0.1	0.86	-0.01045
0.1	0.87	-0.0106083
0.1	0.88	-0.0108485
0.1	0.89	-0.0111794
0.1	0.9	-0.0116081
0.1	0.91	-0.0121368
0.1	0.92	-0.0127572
0.1	0.93	-0.0134408
0.1	0.94	-0.0141227
0.1	0.95	-0.0146743
0.1	0.96	-0.0148599
0.1	0.97	-0.0142743
0.1	0.98	-0.0122644
0.1	0.99	-0.00788061
0.1	1	0
0.11	0	0
0.11	0.01	1.4758e-006
0.11	0.02	1.49534e-006
0.11	0.03	-3.79116e-006
0.11	0.04	-1.77428e-005
0.11	0.05	-4.32877e-005
0.11	0.06	-8.29748e-005
0.11	0.07	-0.000139017
0.11	0.08	-0.000213325
0.11	0.09	-0.000307541
0.11	0.1	-0.000423054
0.11	0.11	-0.000561024
0.11	0.12	-0.000722388
0.11	0.13	-0.000907878
0.11	0.14	-0.00111802
0.11	0.15	-0.00135314
0.11	0.16	-0.00161337
0.11	0.17	-0.00189866
0.11	0.18	-0.00220875
0.11	0.19	-0.00254323
0.11	0.2	-0.00290145
0.11	0.21	-0.00328264
0.11	0.22	-0.00368583
0.11	0.23	-0.00410986
0.11	0.24	-0.00455344
0.11	0.25	-0.00501512
0.11	0.26	-0.0054933
0.11	0.27	-0.00598624
0.11	0.28	-0.0064921
0.11	0.29	-0.00700889
0.11	0.3	-0.00753457
0.11	0.31	-0.00806698
0.11	0.32	-0.00860392
0.11	0.33	-0.00914313
0.11	0.34	-0.0096823
0.11	0.35	-0.0102191
0.11	0.36	-0.0107513
0.11	0.37	-0.0112764
0.11	0.38	-0.0117923
0.11	0.39	-0.0122967
0.11	0.4	-0.0127875
0.11	0.41	-0.0132624
0.11	0.42	-0.0137195
0.11	0.43	-0.014157
0.11	0.44	-0.0145728
0.11	0.45	-0.0149655
0.11	0.46	-0.0153334
0.11	0.47	-0.0156752
0.11	0.48	-0.0159894
0.11	0.49	-0.0162751
0.11	0.5	-0.0165313
0.11	0.51	-0.0167571
0.11	0.52	-0.0169519
0.11	0.53	-0.0171153
0.11	0.54	-0.017247
0.11	0.55	-0.0173469
0.11	0.56	-0.017415
0.11	0.57	-0.0174515
0.11	0.58	-0.0174569
0.11	0.59	-0.0174318
0.11	0.6	-0.0173768
0.11	0.61	-0.0172929
0.11	0.62	-0.0171813
0.11	0.63	-0.0170432
0.11	0.64	-0.01688
0.11	0.65	-0.0166934
0.11	0.66	-0.016485
0.11	0.67	-0.016257
0.11	0.68	-0.0160113
0.11	0.69	-0.0157503
0.11	0.7	-0.0154764
0.11	0.71	-0.0151923
0.11	0.72	-0.0149007
0.11	0.73	-0.0146046
0.11	0.74	-0.0143073
0.11	0.75	-0.0140121
0.11	0.76	-0.0137227
0.11	0.77	-0.013443
0.11	0.78	-0.0131773
0.11	0.79	-0.01293
0.11	0.8	-0.0127061
0.11	0.81	-0.0125109
0.11	0.82	-0.0123504
0.11	0.83	-0.012231
0.11	0.84	-0.0121597
0.11	0.85	-0.0121441
0.11	0.86	-0.0121926
0.11	0.87	-0.0123139
0.11	0.88	-0.0125168
0.11	0.89	-0.012809
0.11	0.9	-0.0131959
0.11	0.91	-0.0136767
0.11	0.92	-0.014239
0.11	0.93	-0.0148478
0.11	0.94	-0.0154287
0.11	0.95	-0.0158402
0.11	0.96	-0.0158328
0.11	0.97	-0.0149926
0.11	0.98	-0.0126813
0.11	0.99	-0.00801437
0.11	1	0
0.12	0	0
0.12	0.01	7.85286e-007
0.12	0.02	-1.46279e-006
0.12	0.03	-1.08069e-005
0.12	0.04	-3.08233e-005
0.12	0.05	-6.46526e-005
0.12	0.06	-0.000115045
0.12	0.07	-0.000184398
0.12	0.08	-0.00027479
0.12	0.09	-0.000388007
0.12	0.1	-0.000525561
0.12	0.11	-0.00068871
0.12	0.12	-0.000878468
0.12	0.13	-0.00109561
0.12	0.14	-0.0013407
0.12	0.15	-0.00161406
0.12	0.16	-0.0019158
0.12	0.17	-0.00224582
0.12	0.18	-0.00260381
0.12	0.19	-0.00298924
0.12	0.2	-0.0034014
0.12	0.21	-0.00383935
0.12	0.22	-0.00430197
0.12	0.23	-0.00478797
0.12	0.24	-0.00529587
0.12	0.25	-0.005824
0.12	0.26	-0.00637057
0.12	0.27	-0.00693362
0.12	0.28	-0.00751105
0.12	0.29	-0.00810067
0.12	0.3	-0.00870016
0.12	0.31	-0.00930712
0.12	0.32	-0.00991906
0.12	0.33	-0.0105335
0.12	0.34	-0.0111478
0.12	0.35	-0.0117594
0.12	0.36	-0.0123658
0.12	0.37	-0.0129643
0.12	0.38	-0.0135525
0.12	0.39	-0.0141277
0.12	0.4	-0.0146877
0.12	0.41	-0.0152301
0.12	0.42	-0.0157526
0.12	0.43	-0.0162531
0.12	0.44	-0.0167296
0.12	0.45	-0.0171802
0.12	0.46	-0.0176032
0.12	0.47	-0.017997
0.12	0.48	-0.0183602
0.12	0.49	-0.0186915
0.12	0.5	-0.0189899
0.12	0.51	-0.0192543
0.12	0.52	-0.0194842
0.12	0.53	-0.0196789
0.12	0.54	-0.0198382
0.12	0.55	-0.0199617
0.12	0.56	-0.0200496
0.12	0.57	-0.020102
0.12	0.58	-0.0201193
0.12	0.59	-0.0201021
0.12	0.6	-0.0200511
0.12	0.61	-0.0199674
0.12	0.62	-0.019852
0.12	0.63	-0.0197063
0.12	0.64	-0.0195318
0.12	0.65	-0.0193302
0.12	0.66	-0.0191033
0.12	0.67	-0.0188532
0.12	0.68	-0.0185823
0.12	0.69	-0.0182928
0.12	0.7	-0.0179876
0.12	0.71	-0.0176693
0.12	0.72	-0.0173411
0.12	0.73	-0.0170061
0.12	0.74	-0.0166678
0.12	0.75	-0.0163299
0.12	0.76	-0.0159962
0.12	0.77	-0.0156711
0.12	0.78	-0.015359
0.12	0.79	-0.0150646
0.12	0.8	-0.0147933
0.12	0.81	-0.0145505
0.12	0.82	-0.0143423
0.12	0.83	-0.0141753
0.12	0.84	-0.0140564
0.12	0.85	-0.0139932
0.12	0.86	-0.0139938
0.12	0.87	-0.0140663
0.12	0.88	-0.0142188
0.12	0.89	-0.0144579
0.12	0.9	-0.0147871
0.12	0.91	-0.0152033
0.12	0.92	-0.01569
0.12	0.93	-0.0162064
0.12	0.94	-0.0166699
0.12	0.95	-0.0169286
0.12	0.96	-0.0167224
0.12	0.97	-0.0156344
0.12	0.98	-0.013044
0.12	0.99	-0.00812732
0.12	1	0
0.13	0	0
0.13	0.01	-5.43719e-008
0.13	0.02	-4.98981e-006
0.13	0.03	-1.90544e-005
0.13	0.04	-4.60157e-005
0.13	0.05	-8.92037e-005
0.13	0.06	-0.000151549
0.13	0.07	-0.000235616
0.13	0.08	-0.000343633
0.13	0.09	-0.000477517
0.13	0.1	-0.000638889
0.13	0.11	-0.000829093
0.13	0.12	-0.00104921
0.13	0.13	-0.00130005
0.13	0.14	-0.00158219
0.13	0.15	-0.00189595
0.13	0.16	-0.0022414
0.13	0.17	-0.00261841
0.13	0.18	-0.00302657
0.13	0.19	-0.00346527
0.13	0.2	-0.00393367
0.13	0.21	-0.0044307
0.13	0.22	-0.00495509
0.13	0.23	-0.00550538
0.13	0.24	-0.00607989
0.13	0.25	-0.00667676
0.13	0.26	-0.00729397
0.13	0.27	-0.00792935
0.13	0.28	-0.00858055
0.13	0.29	-0.00924514
0.13	0.3	-0.00992052
0.13	0.31	-0.0106041
0.13	0.32	-0.011293
0.13	0.33	-0.0119845
0.13	0.34	-0.0126758
0.13	0.35	-0.0133641
0.13	0.36	-0.0140464
0.13	0.37	-0.0147199
0.13	0.38	-0.0153818
0.13	0.39	-0.0160295
0.13	0.4	-0.0166602
0.13	0.41	-0.0172714
0.13	0.42	-0.0178606
0.13	0.43	-0.0184254
0.13	0.44	-0.0189638
0.13	0.45	-0.0194735
0.13	0.46	-0.0199527
0.13	0.47	-0.0203997
0.13	0.48	-0.0208128
0.13	0.49	-0.0211908
0.13	0.5	-0.0215324
0.13	0.51	-0.0218366
0.13	0.52	-0.0221025
0.13	0.53	-0.0223296
0.13	0.54	-0.0225175
0.13	0.55	-0.0226658
0.13	0.56	-0.0227746
0.13	0.57	-0.022844
0.13	0.58	-0.0228744
0.13	0.59	-0.0228663
0.13	0.6	-0.0228206
0.13	0.61	-0.0227382
0.13	0.62	-0.0226203
0.13	0.63	-0.0224682
0.13	0.64	-0.0222835
0.13	0.65	-0.0220679