TITLE = u_vectors
VARIABLES = "x", "y", "u","v"
Zone T = "BLOCK1", i=101, j=101, F=POINT


0	0	0	0
0	0.01	0	0
0	0.02	0	0
0	0.03	0	0
0	0.04	0	0
0	0.05	0	0
0	0.06	0	0
0	0.07	0	0
0	0.08	0	0
0	0.09	0	0
0	0.1	0	0
0	0.11	0	0
0	0.12	0	0
0	0.13	0	0
0	0.14	0	0
0	0.15	0	0
0	0.16	0	0
0	0.17	0	0
0	0.18	0	0
0	0.19	0	0
0	0.2	0	0
0	0.21	0	0
0	0.22	0	0
0	0.23	0	0
0	0.24	0	0
0	0.25	0	0
0	0.26	0	0
0	0.27	0	0
0	0.28	0	0
0	0.29	0	0
0	0.3	0	0
0	0.31	0	0
0	0.32	0	0
0	0.33	0	0
0	0.34	0	0
0	0.35	0	0
0	0.36	0	0
0	0.37	0	0
0	0.38	0	0
0	0.39	0	0
0	0.4	0	0
0	0.41	0	0
0	0.42	0	0
0	0.43	0	0
0	0.44	0	0
0	0.45	0	0
0	0.46	0	0
0	0.47	0	0
0	0.48	0	0
0	0.49	0	0
0	0.5	0	0
0	0.51	0	0
0	0.52	0	0
0	0.53	0	0
0	0.54	0	0
0	0.55	0	0
0	0.56	0	0
0	0.57	0	0
0	0.58	0	0
0	0.59	0	0
0	0.6	0	0
0	0.61	0	0
0	0.62	0	0
0	0.63	0	0
0	0.64	0	0
0	0.65	0	0
0	0.66	0	0
0	0.67	0	0
0	0.68	0	0
0	0.69	0	0
0	0.7	0	0
0	0.71	0	0
0	0.72	0	0
0	0.73	0	0
0	0.74	0	0
0	0.75	0	0
0	0.76	0	0
0	0.77	0	0
0	0.78	0	0
0	0.79	0	0
0	0.8	0	0
0	0.81	0	0
0	0.82	0	0
0	0.83	0	0
0	0.84	0	0
0	0.85	0	0
0	0.86	0	0
0	0.87	0	0
0	0.88	0	0
0	0.89	0	0
0	0.9	0	0
0	0.91	0	0
0	0.92	0	0
0	0.93	0	0
0	0.94	0	0
0	0.95	0	0
0	0.96	0	0
0	0.97	0	0
0	0.98	0	0
0	0.99	0	0
0	1	1	0
0.01	0	0	0
0.01	0.01	1.38452e-005	-1.38196e-005
0.01	0.02	1.95224e-005	-3.93763e-005
0.01	0.03	1.72571e-005	-6.36553e-005
0.01	0.04	9.92328e-006	-7.75482e-005
0.01	0.05	-2.99404e-007	-7.51728e-005
0.01	0.06	-1.20728e-005	-5.29189e-005
0.01	0.07	-2.46164e-005	-8.67788e-006
0.01	0.08	-3.74782e-005	5.86917e-005
0.01	0.09	-5.03953e-005	0.000149714
0.01	0.1	-6.32145e-005	0.000264522
0.01	0.11	-7.58474e-005	0.000402998
0.01	0.12	-8.82434e-005	0.000564869
0.01	0.13	-0.000100375	0.000749762
0.01	0.14	-0.000112229	0.000957244
0.01	0.15	-0.000123797	0.00118684
0.01	0.16	-0.000135077	0.00143807
0.01	0.17	-0.000146068	0.0017104
0.01	0.18	-0.000156769	0.00200332
0.01	0.19	-0.000167177	0.00231629
0.01	0.2	-0.000177288	0.00264876
0.01	0.21	-0.000187099	0.00300018
0.01	0.22	-0.0001966	0.00336998
0.01	0.23	-0.000205785	0.00375755
0.01	0.24	-0.000214642	0.0041623
0.01	0.25	-0.000223159	0.00458358
0.01	0.26	-0.000231323	0.00502074
0.01	0.27	-0.000239119	0.00547309
0.01	0.28	-0.000246529	0.00593991
0.01	0.29	-0.000253539	0.00642046
0.01	0.3	-0.00026013	0.00691396
0.01	0.31	-0.000266285	0.0074196
0.01	0.32	-0.000271987	0.00793654
0.01	0.33	-0.000277217	0.00846389
0.01	0.34	-0.00028196	0.00900076
0.01	0.35	-0.000286199	0.0095462
0.01	0.36	-0.000289921	0.0100993
0.01	0.37	-0.000293112	0.010659
0.01	0.38	-0.000295763	0.0112243
0.01	0.39	-0.000297864	0.0117942
0.01	0.4	-0.000299411	0.0123676
0.01	0.41	-0.000300401	0.0129436
0.01	0.42	-0.000300835	0.013521
0.01	0.43	-0.000300719	0.0140988
0.01	0.44	-0.000300062	0.0146761
0.01	0.45	-0.000298879	0.0152517
0.01	0.46	-0.000297188	0.0158248
0.01	0.47	-0.000295014	0.0163944
0.01	0.48	-0.000292389	0.0169596
0.01	0.49	-0.00028935	0.0175196
0.01	0.5	-0.00028594	0.0180737
0.01	0.51	-0.000282212	0.0186212
0.01	0.52	-0.000278225	0.0191616
0.01	0.53	-0.000274047	0.0196945
0.01	0.54	-0.000269755	0.0202195
0.01	0.55	-0.000265437	0.0207366
0.01	0.56	-0.000261191	0.0212458
0.01	0.57	-0.000257129	0.0217473
0.01	0.58	-0.000253374	0.0222415
0.01	0.59	-0.000250066	0.0227293
0.01	0.6	-0.000247363	0.0232115
0.01	0.61	-0.00024544	0.0236894
0.01	0.62	-0.000244496	0.0241648
0.01	0.63	-0.000244757	0.0246396
0.01	0.64	-0.000246479	0.0251163
0.01	0.65	-0.000249953	0.0255979
0.01	0.66	-0.000255514	0.0260879
0.01	0.67	-0.000263545	0.0265906
0.01	0.68	-0.000274492	0.027111
0.01	0.69	-0.000288871	0.0276549
0.01	0.7	-0.000307286	0.0282292
0.01	0.71	-0.000330443	0.0288419
0.01	0.72	-0.000359179	0.0295024
0.01	0.73	-0.000394482	0.0302217
0.01	0.74	-0.000437529	0.0310128
0.01	0.75	-0.00048973	0.0318908
0.01	0.76	-0.00055278	0.0328736
0.01	0.77	-0.000628732	0.0339821
0.01	0.78	-0.000720086	0.0352412
0.01	0.79	-0.000829909	0.0366804
0.01	0.8	-0.000961995	0.0383347
0.01	0.81	-0.00112109	0.040246
0.01	0.82	-0.00131318	0.0424647
0.01	0.83	-0.00154594	0.0450516
0.01	0.84	-0.00182937	0.0480808
0.01	0.85	-0.00217671	0.0516435
0.01	0.86	-0.00260589	0.0558526
0.01	0.87	-0.00314181	0.0608499
0.01	0.88	-0.00381999	0.066816
0.01	0.89	-0.00469281	0.073984
0.01	0.9	-0.00584013	0.0826598
0.01	0.91	-0.00738834	0.0932505
0.01	0.92	-0.0095444	0.106304
0.01	0.93	-0.0126553	0.122557
0.01	0.94	-0.0172986	0.142961
0.01	0.95	-0.024348	0.168591
0.01	0.96	-0.0345999	0.200062
0.01	0.97	-0.0457901	0.235228
0.01	0.98	-0.0365284	0.261404
0.01	0.99	0.112826	0.231383
0.01	1	1	0
0.02	0	0	0
0.02	0.01	3.93763e-005	-1.94046e-005
0.02	0.02	4.98357e-005	-4.96348e-005
0.02	0.03	3.81719e-005	-7.23944e-005
0.02	0.04	1.15175e-005	-7.46648e-005
0.02	0.05	-2.46293e-005	-4.73487e-005
0.02	0.06	-6.64949e-005	1.56659e-005
0.02	0.07	-0.000111611	0.000118303
0.02	0.08	-0.000158392	0.000262934
0.02	0.09	-0.00020583	0.000450855
0.02	0.1	-0.000253284	0.000682623
0.02	0.11	-0.000300347	0.000958295
0.02	0.12	-0.000346764	0.00127759
0.02	0.13	-0.000392376	0.00163999
0.02	0.14	-0.000437082	0.00204483
0.02	0.15	-0.000480822	0.00249135
0.02	0.16	-0.000523554	0.00297869
0.02	0.17	-0.00056525	0.00350596
0.02	0.18	-0.000605888	0.00407222
0.02	0.19	-0.000645445	0.00467649
0.02	0.2	-0.000683897	0.00531777
0.02	0.21	-0.000721217	0.00599501
0.02	0.22	-0.000757371	0.00670713
0.02	0.23	-0.000792322	0.00745303
0.02	0.24	-0.000826028	0.00823155
0.02	0.25	-0.000858441	0.00904148
0.02	0.26	-0.000889507	0.00988158
0.02	0.27	-0.000919171	0.0107505
0.02	0.28	-0.000947373	0.011647
0.02	0.29	-0.00097405	0.0125695
0.02	0.3	-0.000999138	0.0135167
0.02	0.31	-0.00102257	0.014487
0.02	0.32	-0.00104429	0.0154787
0.02	0.33	-0.00106422	0.0164903
0.02	0.34	-0.00108231	0.0175199
0.02	0.35	-0.00109851	0.018566
0.02	0.36	-0.00111275	0.0196266
0.02	0.37	-0.00112499	0.0206999
0.02	0.38	-0.0011352	0.0217839
0.02	0.39	-0.00114335	0.0228769
0.02	0.4	-0.00114941	0.0239768
0.02	0.41	-0.00115339	0.0250816
0.02	0.42	-0.00115527	0.0261894
0.02	0.43	-0.0011551	0.0272983
0.02	0.44	-0.0011529	0.0284063
0.02	0.45	-0.00114873	0.0295115
0.02	0.46	-0.00114266	0.0306122
0.02	0.47	-0.00113478	0.0317066
0.02	0.48	-0.00112522	0.032793
0.02	0.49	-0.0011141	0.03387
0.02	0.5	-0.00110161	0.0349361
0.02	0.51	-0.00108792	0.0359902
0.02	0.52	-0.00107327	0.0370312
0.02	0.53	-0.00105791	0.0380583
0.02	0.54	-0.00104212	0.039071
0.02	0.55	-0.00102625	0.0400689
0.02	0.56	-0.00101065	0.0410523
0.02	0.57	-0.000995753	0.0420215
0.02	0.58	-0.000982012	0.0429773
0.02	0.59	-0.000969955	0.043921
0.02	0.6	-0.000960169	0.0448546
0.02	0.61	-0.000953315	0.0457802
0.02	0.62	-0.000950137	0.046701
0.02	0.63	-0.000951474	0.0476208
0.02	0.64	-0.000958279	0.048544
0.02	0.65	-0.000971634	0.0494763
0.02	0.66	-0.000992774	0.0504241
0.02	0.67	-0.00102311	0.0513953
0.02	0.68	-0.00106428	0.0523989
0.02	0.69	-0.00111816	0.0534456
0.02	0.7	-0.00118694	0.0545479
0.02	0.71	-0.00127317	0.0557205
0.02	0.72	-0.00137983	0.0569801
0.02	0.73	-0.00151042	0.0583467
0.02	0.74	-0.0016691	0.0598433
0.02	0.75	-0.00186078	0.0614966
0.02	0.76	-0.0020913	0.063338
0.02	0.77	-0.00236768	0.0654041
0.02	0.78	-0.00269834	0.0677377
0.02	0.79	-0.0030935	0.0703889
0.02	0.8	-0.00356561	0.0734166
0.02	0.81	-0.00412996	0.0768902
0.02	0.82	-0.00480553	0.0808917
0.02	0.83	-0.00561612	0.085518
0.02	0.84	-0.0065919	0.0908844
0.02	0.85	-0.00777175	0.0971286
0.02	0.86	-0.00920644	0.104415
0.02	0.87	-0.0109635	0.112941
0.02	0.88	-0.0131341	0.122945
0.02	0.89	-0.0158437	0.134709
0.02	0.9	-0.0192665	0.148568
0.02	0.91	-0.0236447	0.164902
0.02	0.92	-0.0293065	0.184105
0.02	0.93	-0.0366564	0.20648
0.02	0.94	-0.0460344	0.231962
0.02	0.95	-0.0571015	0.2594
0.02	0.96	-0.0666369	0.284875
0.02	0.97	-0.0613414	0.298026
0.02	0.98	0.00384532	0.275559
0.02	0.99	0.261404	0.17775
0.02	1	1	0
0.03	0	0	0
0.03	0.01	6.348e-005	-1.70022e-005
0.03	0.02	7.25122e-005	-3.77135e-005
0.03	0.03	4.22871e-005	-4.18566e-005
0.03	0.04	-1.51224e-005	-1.48644e-005
0.03	0.05	-9.063e-005	5.38335e-005
0.03	0.06	-0.000177724	0.000171743
0.03	0.07	-0.000271884	0.000344002
0.03	0.08	-0.00037003	0.00057396
0.03	0.09	-0.000470084	0.000863635
0.03	0.1	-0.000570655	0.00121408
0.03	0.11	-0.000670812	0.00162565
0.03	0.12	-0.000769938	0.00209821
0.03	0.13	-0.000867622	0.00263124
0.03	0.14	-0.00096359	0.003224
0.03	0.15	-0.00105766	0.00387555
0.03	0.16	-0.00114969	0.00458481
0.03	0.17	-0.0012396	0.00535061
0.03	0.18	-0.0013273	0.00617169
0.03	0.19	-0.00141272	0.00704672
0.03	0.2	-0.0014958	0.00797431
0.03	0.21	-0.00157646	0.00895302
0.03	0.22	-0.00165463	0.00998135
0.03	0.23	-0.0017302	0.0110577
0.03	0.24	-0.00180309	0.0121805
0.03	0.25	-0.00187319	0.013348
0.03	0.26	-0.00194038	0.0145584
0.03	0.27	-0.00200454	0.0158099
0.03	0.28	-0.00206554	0.0171006
0.03	0.29	-0.00212326	0.0184284
0.03	0.3	-0.00217754	0.0197913
0.03	0.31	-0.00222826	0.0211871
0.03	0.32	-0.00227528	0.0226136
0.03	0.33	-0.00231847	0.0240683
0.03	0.34	-0.0023577	0.025549
0.03	0.35	-0.00239284	0.027053
0.03	0.36	-0.0024238	0.0285779
0.03	0.37	-0.00245047	0.030121
0.03	0.38	-0.00247278	0.0316796
0.03	0.39	-0.00249067	0.0332511
0.03	0.4	-0.00250409	0.0348327
0.03	0.41	-0.00251304	0.0364216
0.03	0.42	-0.00251752	0.0380151
0.03	0.43	-0.00251759	0.0396104
0.03	0.44	-0.00251332	0.0412049
0.03	0.45	-0.00250483	0.0427958
0.03	0.46	-0.00249227	0.0443807
0.03	0.47	-0.00247585	0.045957
0.03	0.48	-0.00245581	0.0475225
0.03	0.49	-0.00243246	0.049075
0.03	0.5	-0.00240614	0.0506126
0.03	0.51	-0.00237726	0.0521334
0.03	0.52	-0.00234631	0.0536362
0.03	0.53	-0.00231382	0.0551196
0.03	0.54	-0.00228041	0.0565829
0.03	0.55	-0.00224678	0.0580257
0.03	0.56	-0.00221372	0.059448
0.03	0.57	-0.00218211	0.0608505
0.03	0.58	-0.00215295	0.0622341
0.03	0.59	-0.00212733	0.0636006
0.03	0.6	-0.00210652	0.0649524
0.03	0.61	-0.0020919	0.0662929
0.03	0.62	-0.00208506	0.0676261
0.03	0.63	-0.00208775	0.0689571
0.03	0.64	-0.002102	0.0702921
0.03	0.65	-0.00213005	0.0716386
0.03	0.66	-0.00217451	0.0730055
0.03	0.67	-0.0022383	0.0744033
0.03	0.68	-0.00232482	0.0758442
0.03	0.69	-0.00243794	0.0773427
0.03	0.7	-0.00258215	0.0789153
0.03	0.71	-0.00276263	0.0805816
0.03	0.72	-0.00298543	0.0823639
0.03	0.73	-0.0032576	0.0842883
0.03	0.74	-0.00358738	0.0863847
0.03	0.75	-0.00398447	0.0886879
0.03	0.76	-0.0044603	0.091238
0.03	0.77	-0.0050284	0.0940812
0.03	0.78	-0.00570485	0.097271
0.03	0.79	-0.00650884	0.100869
0.03	0.8	-0.00746337	0.104947
0.03	0.81	-0.00859619	0.109586
0.03	0.82	-0.00994094	0.114881
0.03	0.83	-0.0115387	0.120941
0.03	0.84	-0.01344	0.12789
0.03	0.85	-0.0157073	0.135869
0.03	0.86	-0.0184187	0.145038
0.03	0.87	-0.0216715	0.155573
0.03	0.88	-0.0255873	0.167662
0.03	0.89	-0.0303158	0.181492
0.03	0.9	-0.0360331	0.19722
0.03	0.91	-0.0429253	0.214915
0.03	0.92	-0.051123	0.234433
0.03	0.93	-0.0605125	0.255168
0.03	0.94	-0.0702178	0.275571
0.03	0.95	-0.0772608	0.29224
0.03	0.96	-0.0732263	0.29838
0.03	0.97	-0.0364741	0.281772
0.03	0.98	0.0837474	0.224474
0.03	0.99	0.388385	0.114411
0.03	1	1	0
0.04	0	0	0
0.04	0.01	7.70899e-005	-9.5814e-006
0.04	0.02	7.469e-005	-1.10807e-005
0.04	0.03	1.53228e-005	1.51559e-005
0.04	0.04	-8.41726e-005	8.37215e-005
0.04	0.05	-0.000211236	0.000205538
0.04	0.06	-0.000356664	0.000388665
0.04	0.07	-0.000513828	0.000638881
0.04	0.08	-0.000678026	0.000960159
0.04	0.09	-0.000845953	0.00135506
0.04	0.1	-0.0010153	0.00182507
0.04	0.11	-0.00118447	0.00237084
0.04	0.12	-0.00135235	0.00299243
0.04	0.13	-0.00151817	0.00368943
0.04	0.14	-0.00168139	0.00446108
0.04	0.15	-0.00184163	0.00530636
0.04	0.16	-0.00199861	0.00622408
0.04	0.17	-0.00215213	0.00721286
0.04	0.18	-0.002302	0.0082712
0.04	0.19	-0.00244807	0.00939752
0.04	0.2	-0.0025902	0.0105901
0.04	0.21	-0.00272825	0.0118472
0.04	0.22	-0.00286206	0.0131669
0.04	0.23	-0.00299146	0.0145473
0.04	0.24	-0.00311629	0.0159863
0.04	0.25	-0.00323635	0.0174819
0.04	0.26	-0.00335145	0.0190317
0.04	0.27	-0.00346137	0.0206335
0.04	0.28	-0.00356589	0.0222848
0.04	0.29	-0.0036648	0.0239831
0.04	0.3	-0.00375785	0.0257258
0.04	0.31	-0.00384483	0.0275102
0.04	0.32	-0.00392549	0.0293334
0.04	0.33	-0.00399961	0.0311925
0.04	0.34	-0.00406699	0.0330845
0.04	0.35	-0.00412742	0.0350062
0.04	0.36	-0.00418072	0.0369544
0.04	0.37	-0.00422674	0.0389259
0.04	0.38	-0.00426533	0.0409173
0.04	0.39	-0.0042964	0.0429252
0.04	0.4	-0.00431989	0.0449462
0.04	0.41	-0.00433578	0.0469768
0.04	0.42	-0.00434408	0.0490136
0.04	0.43	-0.00434487	0.051053
0.04	0.44	-0.0043383	0.0530919
0.04	0.45	-0.00432454	0.0551267
0.04	0.46	-0.00430388	0.0571544
0.04	0.47	-0.00427663	0.0591718
0.04	0.48	-0.00424322	0.061176
0.04	0.49	-0.00420415	0.0631642
0.04	0.5	-0.00416002	0.065134
0.04	0.51	-0.0041115	0.0670832
0.04	0.52	-0.0040594	0.0690099
0.04	0.53	-0.00400464	0.0709126
0.04	0.54	-0.00394825	0.0727901
0.04	0.55	-0.0038914	0.074642
0.04	0.56	-0.00383541	0.0764681
0.04	0.57	-0.00378176	0.078269
0.04	0.58	-0.00373212	0.0800459
0.04	0.59	-0.00368834	0.0818009
0.04	0.6	-0.0036525	0.0835367
0.04	0.61	-0.00362695	0.0852572
0.04	0.62	-0.00361429	0.0869672
0.04	0.63	-0.00361747	0.0886729
0.04	0.64	-0.00363982	0.0903814
0.04	0.65	-0.00368506	0.0921018
0.04	0.66	-0.00375746	0.0938444
0.04	0.67	-0.00386183	0.0956216
0.04	0.68	-0.00400367	0.097448
0.04	0.69	-0.00418928	0.0993402
0.04	0.7	-0.00442587	0.101318
0.04	0.71	-0.00472175	0.103403
0.04	0.72	-0.0050865	0.105622
0.04	0.73	-0.0055312	0.108004
0.04	0.74	-0.00606874	0.110584
0.04	0.75	-0.00671405	0.113399
0.04	0.76	-0.00748459	0.116495
0.04	0.77	-0.00840071	0.119922
0.04	0.78	-0.00948625	0.123736
0.04	0.79	-0.0107692	0.128003
0.04	0.8	-0.0122823	0.132796
0.04	0.81	-0.0140642	0.138196
0.04	0.82	-0.0161605	0.144294
0.04	0.83	-0.0186248	0.151189
0.04	0.84	-0.0215202	0.158989
0.04	0.85	-0.0249204	0.167807
0.04	0.86	-0.0289108	0.177754
0.04	0.87	-0.0335874	0.188932
0.04	0.88	-0.0390526	0.201414
0.04	0.89	-0.0454015	0.215211
0.04	0.9	-0.0526898	0.230214
0.04	0.91	-0.0608575	0.246094
0.04	0.92	-0.0695596	0.262128
0.04	0.93	-0.0777946	0.276906
0.04	0.94	-0.0831058	0.287863
0.04	0.95	-0.0799101	0.290601
0.04	0.96	-0.0561696	0.278154
0.04	0.97	0.0125646	0.240998
0.04	0.98	0.171207	0.170534
0.04	0.99	0.485877	0.0727002
0.04	1	1	0
0.05	0	0	0
0.05	0.01	7.45607e-005	5.60044e-007
0.05	0.02	4.77749e-005	2.43681e-005
0.05	0.03	-5.25151e-005	8.87444e-005
0.05	0.04	-0.000205504	0.000207178
0.05	0.05	-0.000395573	0.000390122
0.05	0.06	-0.000611068	0.000645557
0.05	0.07	-0.000843379	0.000979415
0.05	0.08	-0.00108621	0.00139595
0.05	0.09	-0.00133499	0.00189802
0.05	0.1	-0.00158643	0.00248743
0.05	0.11	-0.00183818	0.00316507
0.05	0.12	-0.00208853	0.00393118
0.05	0.13	-0.00233627	0.00478545
0.05	0.14	-0.00258053	0.00572718
0.05	0.15	-0.00282066	0.00675534
0.05	0.16	-0.00305618	0.00786864
0.05	0.17	-0.00328672	0.00906559
0.05	0.18	-0.00351196	0.0103445
0.05	0.19	-0.00373163	0.0117037
0.05	0.2	-0.00394549	0.013141
0.05	0.21	-0.00415327	0.0146546
0.05	0.22	-0.00435474	0.0162423
0.05	0.23	-0.00454962	0.0179017
0.05	0.24	-0.00473765	0.0196304
0.05	0.25	-0.00491853	0.0214261
0.05	0.26	-0.00509196	0.0232861
0.05	0.27	-0.00525762	0.0252076
0.05	0.28	-0.00541518	0.0271878
0.05	0.29	-0.0055643	0.0292237
0.05	0.3	-0.00570464	0.0313123
0.05	0.31	-0.00583585	0.0334504
0.05	0.32	-0.00595759	0.0356346
0.05	0.33	-0.00606954	0.0378614
0.05	0.34	-0.00617137	0.0401273
0.05	0.35	-0.00626279	0.0424287
0.05	0.36	-0.00634354	0.0447618
0.05	0.37	-0.00641337	0.0471226
0.05	0.38	-0.00647209	0.0495073
0.05	0.39	-0.00651956	0.051912
0.05	0.4	-0.00655567	0.0543325
0.05	0.41	-0.0065804	0.0567647
0.05	0.42	-0.00659378	0.0592048
0.05	0.43	-0.00659592	0.0616485
0.05	0.44	-0.00658702	0.0640919
0.05	0.45	-0.00656735	0.066531
0.05	0.46	-0.00653732	0.0689622
0.05	0.47	-0.00649741	0.0713816
0.05	0.48	-0.00644822	0.0737859
0.05	0.49	-0.00639051	0.0761718
0.05	0.5	-0.00632514	0.0785363
0.05	0.51	-0.00625313	0.0808767
0.05	0.52	-0.00617565	0.0831908
0.05	0.53	-0.00609404	0.0854766
0.05	0.54	-0.00600983	0.0877327
0.05	0.55	-0.00592474	0.0899584
0.05	0.56	-0.00584072	0.0921533
0.05	0.57	-0.00575994	0.0943179
0.05	0.58	-0.00568483	0.0964535
0.05	0.59	-0.00561812	0.098562
0.05	0.6	-0.00556286	0.100647
0.05	0.61	-0.00552246	0.102711
0.05	0.62	-0.00550072	0.104761
0.05	0.63	-0.00550193	0.106803
0.05	0.64	-0.0055309	0.108845
0.05	0.65	-0.00559301	0.110896
0.05	0.66	-0.00569438	0.112968
0.05	0.67	-0.0058419	0.115074
0.05	0.68	-0.00604339	0.11723
0.05	0.69	-0.00630773	0.119455
0.05	0.7	-0.00664506	0.121767
0.05	0.71	-0.00706695	0.124193
0.05	0.72	-0.00758664	0.126758
0.05	0.73	-0.00821929	0.129494
0.05	0.74	-0.00898234	0.132436
0.05	0.75	-0.00989579	0.135623
0.05	0.76	-0.0109827	0.1391
0.05	0.77	-0.0122694	0.142916
0.05	0.78	-0.0137865	0.147127
0.05	0.79	-0.0155687	0.151793
0.05	0.8	-0.017656	0.15698
0.05	0.81	-0.020094	0.162759
0.05	0.82	-0.0229341	0.169205
0.05	0.83	-0.0262342	0.176394
0.05	0.84	-0.0300576	0.184397
0.05	0.85	-0.0344717	0.193279
0.05	0.86	-0.0395437	0.203081
0.05	0.87	-0.0453316	0.213805
0.05	0.88	-0.0518662	0.225385
0.05	0.89	-0.0591157	0.237641
0.05	0.9	-0.0669164	0.250202
0.05	0.91	-0.0748395	0.262397
0.05	0.92	-0.0819352	0.27308
0.05	0.93	-0.0862477	0.28038
0.05	0.94	-0.0839132	0.281384
0.05	0.95	-0.0675514	0.271829
0.05	0.96	-0.0236224	0.246138
0.05	0.97	0.0711453	0.198673
0.05	0.98	0.252045	0.128131
0.05	0.99	0.558919	0.0478071
0.05	1	1	0
0.06	0	0	0
0.06	0.01	5.27218e-005	1.19697e-005
0.06	0.02	-1.34943e-005	6.44725e-005
0.06	0.03	-0.000167487	0.000171618
0.06	0.04	-0.00038555	0.000345025
0.06	0.05	-0.000649615	0.000594071
0.06	0.06	-0.000945957	0.000926165
0.06	0.07	-0.00126422	0.001347
0.06	0.08	-0.00159663	0.00186078
0.06	0.09	-0.00193744	0.00247048
0.06	0.1	-0.00228235	0.00317801
0.06	0.11	-0.00262822	0.00398443
0.06	0.12	-0.00297273	0.00489009
0.06	0.13	-0.00331418	0.00589479
0.06	0.14	-0.00365128	0.00699789
0.06	0.15	-0.00398309	0.00819834
0.06	0.16	-0.00430886	0.00949483
0.06	0.17	-0.00462801	0.0108858
0.06	0.18	-0.00494006	0.0123694
0.06	0.19	-0.00524458	0.0139438
0.06	0.2	-0.00554117	0.0156068
0.06	0.21	-0.00582947	0.0173562
0.06	0.22	-0.00610908	0.0191896
0.06	0.23	-0.00637964	0.0211043
0.06	0.24	-0.00664074	0.0230979
0.06	0.25	-0.00689197	0.0251674
0.06	0.26	-0.0071329	0.0273099
0.06	0.27	-0.00736309	0.0295224
0.06	0.28	-0.00758206	0.0318016
0.06	0.29	-0.00778937	0.0341443
0.06	0.3	-0.00798452	0.0365469
0.06	0.31	-0.00816705	0.0390058
0.06	0.32	-0.00833649	0.0415173
0.06	0.33	-0.00849238	0.0440775
0.06	0.34	-0.0086343	0.0466823
0.06	0.35	-0.00876184	0.0493277
0.06	0.36	-0.00887462	0.0520093
0.06	0.37	-0.00897233	0.0547229
0.06	0.38	-0.0090547	0.0574639
0.06	0.39	-0.00912152	0.060228
0.06	0.4	-0.00917266	0.0630104
0.06	0.41	-0.00920807	0.0658068
0.06	0.42	-0.00922779	0.0686123
0.06	0.43	-0.00923197	0.0714226
0.06	0.44	-0.00922086	0.0742329
0.06	0.45	-0.00919486	0.077039
0.06	0.46	-0.00915448	0.0798364
0.06	0.47	-0.00910039	0.0826209
0.06	0.48	-0.0090334	0.0853887
0.06	0.49	-0.00895452	0.0881359
0.06	0.5	-0.00886491	0.090859
0.06	0.51	-0.00876597	0.0935551
0.06	0.52	-0.00865926	0.0962212
0.06	0.53	-0.00854661	0.0988552
0.06	0.54	-0.00843008	0.101455
0.06	0.55	-0.00831199	0.10402
0.06	0.56	-0.00819496	0.10655
0.06	0.57	-0.00808193	0.109044
0.06	0.58	-0.00797619	0.111503
0.06	0.59	-0.00788139	0.11393
0.06	0.6	-0.00780163	0.116328
0.06	0.61	-0.00774147	0.1187
0.06	0.62	-0.00770601	0.121052
0.06	0.63	-0.00770096	0.123391
0.06	0.64	-0.00773267	0.125724
0.06	0.65	-0.0078083	0.128062
0.06	0.66	-0.00793588	0.130416
0.06	0.67	-0.00812441	0.1328
0.06	0.68	-0.00838409	0.135229
0.06	0.69	-0.00872639	0.137722
0.06	0.7	-0.00916432	0.1403
0.06	0.71	-0.00971258	0.142986
0.06	0.72	-0.0103879	0.145808
0.06	0.73	-0.0112091	0.148794
0.06	0.74	-0.0121977	0.15198
0.06	0.75	-0.0133781	0.155403
0.06	0.76	-0.0147777	0.159103
0.06	0.77	-0.0164276	0.163126
0.06	0.78	-0.0183627	0.167519
0.06	0.79	-0.020622	0.172336
0.06	0.8	-0.0232485	0.177628
0.06	0.81	-0.0262895	0.183449
0.06	0.82	-0.029795	0.189849
0.06	0.83	-0.033817	0.196873
0.06	0.84	-0.0384058	0.204548
0.06	0.85	-0.043604	0.21288
0.06	0.86	-0.0494366	0.221834
0.06	0.87	-0.0558917	0.231311
0.06	0.88	-0.0628881	0.241114
0.06	0.89	-0.0702179	0.250896
0.06	0.9	-0.0774464	0.260089
0.06	0.91	-0.0837361	0.267794
0.06	0.92	-0.0875429	0.272652
0.06	0.93	-0.0860982	0.272673
0.06	0.94	-0.0745542	0.265102
0.06	0.95	-0.0446645	0.246434
0.06	0.96	0.0169858	0.212925
0.06	0.97	0.130572	0.162272
0.06	0.98	0.322073	0.097432
0.06	0.99	0.614008	0.0329999
0.06	1	1	0
0.07	0	0	0
0.07	0.01	1.00882e-005	2.37686e-005
0.07	0.02	-0.000111873	0.000106425
0.07	0.03	-0.000333067	0.000258571
0.07	0.04	-0.000627958	0.000489522
0.07	0.05	-0.000976714	0.000807165
0.07	0.06	-0.00136399	0.00121797
0.07	0.07	-0.001778	0.00172706
0.07	0.08	-0.00220969	0.00233836
0.07	0.09	-0.00265222	0.0030547
0.07	0.1	-0.00310038	0.00387798
0.07	0.11	-0.00355026	0.00480929
0.07	0.12	-0.00399889	0.00584904
0.07	0.13	-0.00444406	0.00699708
0.07	0.14	-0.00488407	0.00825278
0.07	0.15	-0.0053176	0.00961514
0.07	0.16	-0.00574363	0.0110828
0.07	0.17	-0.00616133	0.0126542
0.07	0.18	-0.00657	0.0143274
0.07	0.19	-0.00696904	0.0161003
0.07	0.2	-0.00735788	0.0179708
0.07	0.21	-0.00773599	0.0199364
0.07	0.22	-0.00810284	0.0219945
0.07	0.23	-0.00845792	0.0241423
0.07	0.24	-0.00880068	0.026377
0.07	0.25	-0.00913055	0.0286956
0.07	0.26	-0.00944698	0.0310948
0.07	0.27	-0.00974936	0.0335713
0.07	0.28	-0.0100371	0.0361215
0.07	0.29	-0.0103096	0.0387419
0.07	0.3	-0.0105662	0.0414286
0.07	0.31	-0.0108063	0.0441777
0.07	0.32	-0.0110292	0.046985
0.07	0.33	-0.0112345	0.0498462
0.07	0.34	-0.0114215	0.0527571
0.07	0.35	-0.0115898	0.0557131
0.07	0.36	-0.0117387	0.0587094
0.07	0.37	-0.011868	0.0617413
0.07	0.38	-0.0119772	0.0648041
0.07	0.39	-0.0120661	0.0678926
0.07	0.4	-0.0121345	0.0710019
0.07	0.41	-0.0121823	0.074127
0.07	0.42	-0.0122096	0.0772627
0.07	0.43	-0.0122165	0.0804041
0.07	0.44	-0.0122034	0.0835461
0.07	0.45	-0.0121708	0.0866837
0.07	0.46	-0.0121193	0.0898123
0.07	0.47	-0.0120497	0.092927
0.07	0.48	-0.0119632	0.0960234
0.07	0.49	-0.0118609	0.0990974
0.07	0.5	-0.0117443	0.102145
0.07	0.51	-0.0116153	0.105163
0.07	0.52	-0.0114758	0.108147
0.07	0.53	-0.0113281	0.111095
0.07	0.54	-0.0111749	0.114006
0.07	0.55	-0.0110191	0.116877
0.07	0.56	-0.0108641	0.119707
0.07	0.57	-0.0107135	0.122497
0.07	0.58	-0.0105716	0.125246
0.07	0.59	-0.0104429	0.127957
0.07	0.6	-0.0103328	0.130633
0.07	0.61	-0.0102468	0.133277
0.07	0.62	-0.0101915	0.135893
0.07	0.63	-0.0101739	0.138489
0.07	0.64	-0.010202	0.141073
0.07	0.65	-0.0102848	0.143653
0.07	0.66	-0.010432	0.146241
0.07	0.67	-0.0106549	0.148851
0.07	0.68	-0.0109658	0.151497
0.07	0.69	-0.0113786	0.154197
0.07	0.7	-0.011909	0.156971
0.07	0.71	-0.0125745	0.15984
0.07	0.72	-0.0133949	0.162831
0.07	0.73	-0.014392	0.165971
0.07	0.74	-0.0155907	0.16929
0.07	0.75	-0.0170184	0.172821
0.07	0.76	-0.0187056	0.176599
0.07	0.77	-0.0206861	0.180663
0.07	0.78	-0.0229966	0.185051
0.07	0.79	-0.0256769	0.189802
0.07	0.8	-0.0287689	0.194951
0.07	0.81	-0.0323154	0.200531
0.07	0.82	-0.0363579	0.206565
0.07	0.83	-0.040933	0.213061
0.07	0.84	-0.0460654	0.220003
0.07	0.85	-0.0517581	0.227338
0.07	0.86	-0.0579746	0.234959
0.07	0.87	-0.0646113	0.242681
0.07	0.88	-0.0714514	0.250202
0.07	0.89	-0.0780904	0.257056
0.07	0.9	-0.0838144	0.262552
0.07	0.91	-0.0874028	0.26569
0.07	0.92	-0.0868143	0.265077
0.07	0.93	-0.0786979	0.258848
0.07	0.94	-0.0576733	0.244682
0.07	0.95	-0.0153744	0.220025
0.07	0.96	0.0605396	0.182805
0.07	0.97	0.186639	0.133033
0.07	0.98	0.381316	0.0756367
0.07	0.99	0.656351	0.0239166
0.07	1	1	0
0.08	0	0	0
0.08	0.01	-5.37037e-005	3.54268e-005
0.08	0.02	-0.000248297	0.000148369
0.08	0.03	-0.000550584	0.000345965
0.08	0.04	-0.000934145	0.000635056
0.08	0.05	-0.00137806	0.00102179
0.08	0.06	-0.00186585	0.00151144
0.08	0.07	-0.00238461	0.00210834
0.08	0.08	-0.00292428	0.00281589
0.08	0.09	-0.00347706	0.00363662
0.08	0.1	-0.00403693	0.00457225
0.08	0.11	-0.00459928	0.00562379
0.08	0.12	-0.00516052	0.00679164
0.08	0.13	-0.00571792	0.00807562
0.08	0.14	-0.00626935	0.00947513
0.08	0.15	-0.00681311	0.0109891
0.08	0.16	-0.00734789	0.0126163
0.08	0.17	-0.00787257	0.0143549
0.08	0.18	-0.00838622	0.0162031
0.08	0.19	-0.00888802	0.0181588
0.08	0.2	-0.00937723	0.0202195
0.08	0.21	-0.00985313	0.0223827
0.08	0.22	-0.010315	0.0246457
0.08	0.23	-0.0107622	0.0270057
0.08	0.24	-0.011194	0.0294594
0.08	0.25	-0.0116097	0.0320038
0.08	0.26	-0.0120086	0.0346353
0.08	0.27	-0.0123898	0.0373505
0.08	0.28	-0.0127527	0.0401455
0.08	0.29	-0.0130964	0.0430164
0.08	0.3	-0.0134203	0.0459592
0.08	0.31	-0.0137234	0.0489697
0.08	0.32	-0.0140051	0.0520434
0.08	0.33	-0.0142646	0.0551757
0.08	0.34	-0.0145011	0.058362
0.08	0.35	-0.0147141	0.0615973
0.08	0.36	-0.0149029	0.0648767
0.08	0.37	-0.015067	0.0681951
0.08	0.38	-0.0152059	0.0715471
0.08	0.39	-0.0153194	0.0749275
0.08	0.4	-0.015407	0.0783308
0.08	0.41	-0.0154689	0.0817516
0.08	0.42	-0.0155049	0.0851845
0.08	0.43	-0.0155153	0.0886238
0.08	0.44	-0.0155005	0.0920643
0.08	0.45	-0.0154611	0.0955005
0.08	0.46	-0.0153977	0.0989271
0.08	0.47	-0.0153116	0.102339
0.08	0.48	-0.0152038	0.105731
0.08	0.49	-0.015076	0.109099
0.08	0.5	-0.01493	0.112439
0.08	0.51	-0.0147679	0.115746
0.08	0.52	-0.0145921	0.119016
0.08	0.53	-0.0144056	0.122247
0.08	0.54	-0.0142113	0.125435
0.08	0.55	-0.0140131	0.12858
0.08	0.56	-0.0138148	0.131678
0.08	0.57	-0.0136212	0.134731
0.08	0.58	-0.0134371	0.137737
0.08	0.59	-0.0132682	0.140699
0.08	0.6	-0.0131208	0.143618
0.08	0.61	-0.0130018	0.146497
0.08	0.62	-0.0129189	0.149342
0.08	0.63	-0.0128806	0.152157
0.08	0.64	-0.0128964	0.15495
0.08	0.65	-0.0129769	0.157729
0.08	0.66	-0.0131338	0.160506
0.08	0.67	-0.01338	0.163292
0.08	0.68	-0.01373	0.1661
0.08	0.69	-0.0142	0.168948
0.08	0.7	-0.0148077	0.171852
0.08	0.71	-0.0155731	0.174833
0.08	0.72	-0.0165183	0.177912
0.08	0.73	-0.0176674	0.181115
0.08	0.74	-0.0190475	0.184465
0.08	0.75	-0.0206879	0.187992
0.08	0.76	-0.0226205	0.191722
0.08	0.77	-0.0248795	0.195684
0.08	0.78	-0.0275008	0.199905
0.08	0.79	-0.0305216	0.204409
0.08	0.8	-0.0339782	0.209215
0.08	0.81	-0.0379039	0.214331
0.08	0.82	-0.042325	0.219753
0.08	0.83	-0.0472545	0.225455
0.08	0.84	-0.0526824	0.231378
0.08	0.85	-0.0585606	0.23742
0.08	0.86	-0.0647799	0.243416
0.08	0.87	-0.0711338	0.249113
0.08	0.88	-0.0772626	0.254137
0.08	0.89	-0.082568	0.257955
0.08	0.9	-0.0860809	0.259825
0.08	0.91	-0.086261	0.258746
0.08	0.92	-0.0807009	0.253414
0.08	0.93	-0.065704	0.242226
0.08	0.94	-0.0357314	0.223389
0.08	0.95	0.0172127	0.19525
0.08	0.96	0.103978	0.157025
0.08	0.97	0.237741	0.110128
0.08	0.98	0.43119	0.0600706
0.08	0.99	0.689645	0.0180978
0.08	1	1	0
0.09	0	0	0
0.09	0.01	-0.000138281	4.66247e-005
0.09	0.02	-0.000422411	0.000189088
0.09	0.03	-0.000819754	0.000431297
0.09	0.04	-0.00130378	0.000777624
0.09	0.05	-0.0018531	0.00123237
0.09	0.06	-0.00245054	0.00179946
0.09	0.07	-0.00308244	0.00248226
0.09	0.08	-0.00373797	0.00328349
0.09	0.09	-0.00440858	0.00420523
0.09	0.1	-0.00508756	0.00524889
0.09	0.11	-0.00576964	0.00641531
0.09	0.12	-0.00645072	0.00770475
0.09	0.13	-0.00712756	0.009117
0.09	0.14	-0.00779758	0.0106514
0.09	0.15	-0.00845875	0.0123069
0.09	0.16	-0.00910941	0.0140821
0.09	0.17	-0.00974817	0.0159753
0.09	0.18	-0.0103738	0.0179845
0.09	0.19	-0.0109854	0.0201077
0.09	0.2	-0.0115818	0.0223422
0.09	0.21	-0.0121623	0.0246856
0.09	0.22	-0.0127258	0.0271349
0.09	0.23	-0.0132716	0.0296871
0.09	0.24	-0.0137988	0.0323391
0.09	0.25	-0.0143064	0.0350874
0.09	0.26	-0.0147936	0.0379285
0.09	0.27	-0.0152595	0.0408586
0.09	0.28	-0.0157031	0.0438738
0.09	0.29	-0.0161234	0.04697
0.09	0.3	-0.0165195	0.0501429
0.09	0.31	-0.0168904	0.053388
0.09	0.32	-0.0172353	0.0567006
0.09	0.33	-0.0175531	0.060076
0.09	0.34	-0.0178432	0.0635091
0.09	0.35	-0.0181045	0.0669948
0.09	0.36	-0.0183365	0.0705279
0.09	0.37	-0.0185383	0.0741028
0.09	0.38	-0.0187096	0.077714
0.09	0.39	-0.0188498	0.0813559
0.09	0.4	-0.0189586	0.0850226
0.09	0.41	-0.0190359	0.0887085
0.09	0.42	-0.0190818	0.0924076
0.09	0.43	-0.0190963	0.096114
0.09	0.44	-0.0190801	0.099822
0.09	0.45	-0.0190336	0.103526
0.09	0.46	-0.0189579	0.107219
0.09	0.47	-0.018854	0.110898
0.09	0.48	-0.0187236	0.114555
0.09	0.49	-0.0185683	0.118187
0.09	0.5	-0.0183904	0.121787
0.09	0.51	-0.0181923	0.125352
0.09	0.52	-0.0179769	0.128878
0.09	0.53	-0.0177475	0.13236
0.09	0.54	-0.0175078	0.135796
0.09	0.55	-0.0172622	0.139183
0.09	0.56	-0.0170154	0.142519
0.09	0.57	-0.0167726	0.145803
0.09	0.58	-0.0165398	0.149035
0.09	0.59	-0.0163235	0.152215
0.09	0.6	-0.0161311	0.155344
0.09	0.61	-0.0159706	0.158424
0.09	0.62	-0.015851	0.161461
0.09	0.63	-0.015782	0.164458
0.09	0.64	-0.0157746	0.167421
0.09	0.65	-0.0158409	0.170359
0.09	0.66	-0.0159941	0.17328
0.09	0.67	-0.016249	0.176194
0.09	0.68	-0.0166217	0.179114
0.09	0.69	-0.0171302	0.182054
0.09	0.7	-0.0177941	0.185028
0.09	0.71	-0.0186351	0.188054
0.09	0.72	-0.0196768	0.19115
0.09	0.73	-0.0209451	0.194335
0.09	0.74	-0.0224678	0.197629
0.09	0.75	-0.0242749	0.201053
0.09	0.76	-0.0263978	0.204627
0.09	0.77	-0.0288691	0.208368
0.09	0.78	-0.0317217	0.212291
0.09	0.79	-0.0349865	0.216406
0.09	0.8	-0.0386908	0.220712
0.09	0.81	-0.042854	0.225199
0.09	0.82	-0.0474817	0.229834
0.09	0.83	-0.0525578	0.234562
0.09	0.84	-0.0580311	0.239289
0.09	0.85	-0.0637965	0.243872
0.09	0.86	-0.069667	0.248104