TITLE = u_vectors
VARIABLES = "x", "y", "U"
Zone T = "BLOCK1", i=101, j=101, F=POINT


0	0	0
0	0.01	0
0	0.02	0
0	0.03	0
0	0.04	0
0	0.05	0
0	0.06	0
0	0.07	0
0	0.08	0
0	0.09	0
0	0.1	0
0	0.11	0
0	0.12	0
0	0.13	0
0	0.14	0
0	0.15	0
0	0.16	0
0	0.17	0
0	0.18	0
0	0.19	0
0	0.2	0
0	0.21	0
0	0.22	0
0	0.23	0
0	0.24	0
0	0.25	0
0	0.26	0
0	0.27	0
0	0.28	0
0	0.29	0
0	0.3	0
0	0.31	0
0	0.32	0
0	0.33	0
0	0.34	0
0	0.35	0
0	0.36	0
0	0.37	0
0	0.38	0
0	0.39	0
0	0.4	0
0	0.41	0
0	0.42	0
0	0.43	0
0	0.44	0
0	0.45	0
0	0.46	0
0	0.47	0
0	0.48	0
0	0.49	0
0	0.5	0
0	0.51	0
0	0.52	0
0	0.53	0
0	0.54	0
0	0.55	0
0	0.56	0
0	0.57	0
0	0.58	0
0	0.59	0
0	0.6	0
0	0.61	0
0	0.62	0
0	0.63	0
0	0.64	0
0	0.65	0
0	0.66	0
0	0.67	0
0	0.68	0
0	0.69	0
0	0.7	0
0	0.71	0
0	0.72	0
0	0.73	0
0	0.74	0
0	0.75	0
0	0.76	0
0	0.77	0
0	0.78	0
0	0.79	0
0	0.8	0
0	0.81	0
0	0.82	0
0	0.83	0
0	0.84	0
0	0.85	0
0	0.86	0
0	0.87	0
0	0.88	0
0	0.89	0
0	0.9	0
0	0.91	0
0	0.92	0
0	0.93	0
0	0.94	0
0	0.95	0
0	0.96	0
0	0.97	0
0	0.98	0
0	0.99	0
0	1	1
0.01	0	0
0.01	0.01	2.73533e-005
0.01	0.02	4.87088e-005
0.01	0.03	5.5677e-005
0.01	0.04	5.08556e-005
0.01	0.05	3.75986e-005
0.01	0.06	1.83381e-005
0.01	0.07	-5.35037e-006
0.01	0.08	-3.24615e-005
0.01	0.09	-6.23378e-005
0.01	0.1	-9.45248e-005
0.01	0.11	-0.000128682
0.01	0.12	-0.000164527
0.01	0.13	-0.000201805
0.01	0.14	-0.00024026
0.01	0.15	-0.000279631
0.01	0.16	-0.00031964
0.01	0.17	-0.000359988
0.01	0.18	-0.000400355
0.01	0.19	-0.000440404
0.01	0.2	-0.000479778
0.01	0.21	-0.000518109
0.01	0.22	-0.000555019
0.01	0.23	-0.000590128
0.01	0.24	-0.000623056
0.01	0.25	-0.00065343
0.01	0.26	-0.000680894
0.01	0.27	-0.000705107
0.01	0.28	-0.000725754
0.01	0.29	-0.000742552
0.01	0.3	-0.00075525
0.01	0.31	-0.000763637
0.01	0.32	-0.000767546
0.01	0.33	-0.000766856
0.01	0.34	-0.000761491
0.01	0.35	-0.000751429
0.01	0.36	-0.000736696
0.01	0.37	-0.00071737
0.01	0.38	-0.000693576
0.01	0.39	-0.000665489
0.01	0.4	-0.000633328
0.01	0.41	-0.000597354
0.01	0.42	-0.000557868
0.01	0.43	-0.000515203
0.01	0.44	-0.000469722
0.01	0.45	-0.000421815
0.01	0.46	-0.000371888
0.01	0.47	-0.000320363
0.01	0.48	-0.000267672
0.01	0.49	-0.000214249
0.01	0.5	-0.000160529
0.01	0.51	-0.00010694
0.01	0.52	-5.39004e-005
0.01	0.53	-1.81442e-006
0.01	0.54	4.89308e-005
0.01	0.55	9.7969e-005
0.01	0.56	0.000144957
0.01	0.57	0.000189576
0.01	0.58	0.000231535
0.01	0.59	0.000270569
0.01	0.6	0.000306442
0.01	0.61	0.000338945
0.01	0.62	0.000367895
0.01	0.63	0.000393134
0.01	0.64	0.000414525
0.01	0.65	0.000431951
0.01	0.66	0.00044531
0.01	0.67	0.000454508
0.01	0.68	0.000459453
0.01	0.69	0.000460048
0.01	0.7	0.000456178
0.01	0.71	0.000447696
0.01	0.72	0.000434407
0.01	0.73	0.000416043
0.01	0.74	0.000392235
0.01	0.75	0.000362469
0.01	0.76	0.000326035
0.01	0.77	0.000281952
0.01	0.78	0.00022887
0.01	0.79	0.000164938
0.01	0.8	8.76161e-005
0.01	0.81	-6.56619e-006
0.01	0.82	-0.000122353
0.01	0.83	-0.000266219
0.01	0.84	-0.000446998
0.01	0.85	-0.000676742
0.01	0.86	-0.000971906
0.01	0.87	-0.00135503
0.01	0.88	-0.00185722
0.01	0.89	-0.00252197
0.01	0.9	-0.00341163
0.01	0.91	-0.004619
0.01	0.92	-0.00628946
0.01	0.93	-0.00866407
0.01	0.94	-0.0121589
0.01	0.95	-0.0174764
0.01	0.96	-0.0255544
0.01	0.97	-0.0359671
0.01	0.98	-0.035369
0.01	0.99	0.0776527
0.01	1	1
0.02	0	0
0.02	0.01	9.23812e-005
0.02	0.02	0.000146334
0.02	0.03	0.000158836
0.02	0.04	0.000136594
0.02	0.05	8.73681e-005
0.02	0.06	1.74692e-005
0.02	0.07	-6.84886e-005
0.02	0.08	-0.000167232
0.02	0.09	-0.000276418
0.02	0.1	-0.000394311
0.02	0.11	-0.000519546
0.02	0.12	-0.00065097
0.02	0.13	-0.000787536
0.02	0.14	-0.00092823
0.02	0.15	-0.00107203
0.02	0.16	-0.00121788
0.02	0.17	-0.00136466
0.02	0.18	-0.00151121
0.02	0.19	-0.00165633
0.02	0.2	-0.00179873
0.02	0.21	-0.00193713
0.02	0.22	-0.00207022
0.02	0.23	-0.00219667
0.02	0.24	-0.00231518
0.02	0.25	-0.00242449
0.02	0.26	-0.00252336
0.02	0.27	-0.00261064
0.02	0.28	-0.00268527
0.02	0.29	-0.00274628
0.02	0.3	-0.00279282
0.02	0.31	-0.00282418
0.02	0.32	-0.00283979
0.02	0.33	-0.00283922
0.02	0.34	-0.0028222
0.02	0.35	-0.00278865
0.02	0.36	-0.00273862
0.02	0.37	-0.00267236
0.02	0.38	-0.00259026
0.02	0.39	-0.00249287
0.02	0.4	-0.00238091
0.02	0.41	-0.00225523
0.02	0.42	-0.00211679
0.02	0.43	-0.00196672
0.02	0.44	-0.0018062
0.02	0.45	-0.00163653
0.02	0.46	-0.00145908
0.02	0.47	-0.00127527
0.02	0.48	-0.00108657
0.02	0.49	-0.000894458
0.02	0.5	-0.000700443
0.02	0.51	-0.000506013
0.02	0.52	-0.000312642
0.02	0.53	-0.000121766
0.02	0.54	6.52237e-005
0.02	0.55	0.000246991
0.02	0.56	0.000422269
0.02	0.57	0.000589863
0.02	0.58	0.000748659
0.02	0.59	0.000897627
0.02	0.6	0.00103582
0.02	0.61	0.00116239
0.02	0.62	0.00127656
0.02	0.63	0.00137764
0.02	0.64	0.00146501
0.02	0.65	0.00153811
0.02	0.66	0.00159644
0.02	0.67	0.00163952
0.02	0.68	0.00166688
0.02	0.69	0.00167802
0.02	0.7	0.0016724
0.02	0.71	0.00164934
0.02	0.72	0.00160802
0.02	0.73	0.00154733
0.02	0.74	0.00146583
0.02	0.75	0.00136156
0.02	0.76	0.00123188
0.02	0.77	0.00107323
0.02	0.78	0.000880788
0.02	0.79	0.000648065
0.02	0.8	0.000366312
0.02	0.81	2.3782e-005
0.02	0.82	-0.000395272
0.02	0.83	-0.000911896
0.02	0.84	-0.00155414
0.02	0.85	-0.00235928
0.02	0.86	-0.00337668
0.02	0.87	-0.00467155
0.02	0.88	-0.00632992
0.02	0.89	-0.00846535
0.02	0.9	-0.0112285
0.02	0.91	-0.0148205
0.02	0.92	-0.0195114
0.02	0.93	-0.025656
0.02	0.94	-0.0336702
0.02	0.95	-0.0437908
0.02	0.96	-0.0549177
0.02	0.97	-0.0597519
0.02	0.98	-0.0250734
0.02	0.99	0.184589
0.02	1	1
0.03	0	0
0.03	0.01	0.000172995
0.03	0.02	0.000258714
0.03	0.03	0.000267157
0.03	0.04	0.000211536
0.03	0.05	0.000104506
0.03	0.06	-4.34451e-005
0.03	0.07	-0.000224194
0.03	0.08	-0.000431604
0.03	0.09	-0.000661018
0.03	0.1	-0.000908811
0.03	0.11	-0.00117203
0.03	0.12	-0.00144812
0.03	0.13	-0.00173475
0.03	0.14	-0.0020297
0.03	0.15	-0.00233074
0.03	0.16	-0.00263558
0.03	0.17	-0.00294189
0.03	0.18	-0.00324723
0.03	0.19	-0.00354909
0.03	0.2	-0.0038449
0.03	0.21	-0.00413202
0.03	0.22	-0.00440781
0.03	0.23	-0.00466963
0.03	0.24	-0.00491489
0.03	0.25	-0.00514106
0.03	0.26	-0.00534574
0.03	0.27	-0.00552663
0.03	0.28	-0.00568165
0.03	0.29	-0.0058089
0.03	0.3	-0.00590671
0.03	0.31	-0.00597367
0.03	0.32	-0.00600864
0.03	0.33	-0.00601078
0.03	0.34	-0.00597956
0.03	0.35	-0.00591476
0.03	0.36	-0.00581646
0.03	0.37	-0.0056851
0.03	0.38	-0.00552139
0.03	0.39	-0.00532639
0.03	0.4	-0.00510141
0.03	0.41	-0.00484808
0.03	0.42	-0.00456825
0.03	0.43	-0.00426404
0.03	0.44	-0.00393775
0.03	0.45	-0.00359188
0.03	0.46	-0.00322908
0.03	0.47	-0.00285214
0.03	0.48	-0.00246394
0.03	0.49	-0.0020674
0.03	0.5	-0.00166552
0.03	0.51	-0.00126129
0.03	0.52	-0.000857672
0.03	0.53	-0.000457598
0.03	0.54	-6.39273e-005
0.03	0.55	0.00032057
0.03	0.56	0.000693231
0.03	0.57	0.00105152
0.03	0.58	0.00139304
0.03	0.59	0.00171554
0.03	0.6	0.00201692
0.03	0.61	0.00229525
0.03	0.62	0.00254875
0.03	0.63	0.00277578
0.03	0.64	0.00297486
0.03	0.65	0.00314461
0.03	0.66	0.00328375
0.03	0.67	0.00339106
0.03	0.68	0.00346535
0.03	0.69	0.00350536
0.03	0.7	0.00350972
0.03	0.71	0.00347685
0.03	0.72	0.00340484
0.03	0.73	0.00329126
0.03	0.74	0.003133
0.03	0.75	0.00292594
0.03	0.76	0.00266467
0.03	0.77	0.00234199
0.03	0.78	0.00194832
0.03	0.79	0.00147095
0.03	0.8	0.000893006
0.03	0.81	0.000192196
0.03	0.82	-0.000660866
0.03	0.83	-0.00170472
0.03	0.84	-0.00298966
0.03	0.85	-0.00458086
0.03	0.86	-0.00656209
0.03	0.87	-0.00903999
0.03	0.88	-0.0121486
0.03	0.89	-0.0160534
0.03	0.9	-0.0209538
0.03	0.91	-0.0270788
0.03	0.92	-0.0346645
0.03	0.93	-0.0438774
0.03	0.94	-0.0545768
0.03	0.95	-0.0655979
0.03	0.96	-0.0725642
0.03	0.97	-0.0611203
0.03	0.98	0.0138342
0.03	0.99	0.282755
0.03	1	1
0.04	0	0
0.04	0.01	0.000250768
0.04	0.02	0.000359468
0.04	0.03	0.000349983
0.04	0.04	0.000243231
0.04	0.05	5.71366e-005
0.04	0.06	-0.000193574
0.04	0.07	-0.00049717
0.04	0.08	-0.000844422
0.04	0.09	-0.00122803
0.04	0.1	-0.00164207
0.04	0.11	-0.0020816
0.04	0.12	-0.00254223
0.04	0.13	-0.00301997
0.04	0.14	-0.00351095
0.04	0.15	-0.00401138
0.04	0.16	-0.00451741
0.04	0.17	-0.0050251
0.04	0.18	-0.00553044
0.04	0.19	-0.00602932
0.04	0.2	-0.00651754
0.04	0.21	-0.00699087
0.04	0.22	-0.00744506
0.04	0.23	-0.00787593
0.04	0.24	-0.00827934
0.04	0.25	-0.00865132
0.04	0.26	-0.00898806
0.04	0.27	-0.00928599
0.04	0.28	-0.00954183
0.04	0.29	-0.00975261
0.04	0.3	-0.0099157
0.04	0.31	-0.0100289
0.04	0.32	-0.0100905
0.04	0.33	-0.010099
0.04	0.34	-0.0100537
0.04	0.35	-0.00995407
0.04	0.36	-0.00980033
0.04	0.37	-0.00959304
0.04	0.38	-0.00933328
0.04	0.39	-0.0090226
0.04	0.4	-0.00866299
0.04	0.41	-0.00825689
0.04	0.42	-0.00780713
0.04	0.43	-0.00731692
0.04	0.44	-0.0067898
0.04	0.45	-0.00622961
0.04	0.46	-0.00564045
0.04	0.47	-0.00502662
0.04	0.48	-0.00439262
0.04	0.49	-0.00374305
0.04	0.5	-0.00308261
0.04	0.51	-0.00241606
0.04	0.52	-0.00174814
0.04	0.53	-0.00108355
0.04	0.54	-0.000426949
0.04	0.55	0.000217135
0.04	0.56	0.000844299
0.04	0.57	0.0014503
0.04	0.58	0.0020311
0.04	0.59	0.00258283
0.04	0.6	0.00310186
0.04	0.61	0.00358478
0.04	0.62	0.00402841
0.04	0.63	0.00442977
0.04	0.64	0.0047861
0.04	0.65	0.00509482
0.04	0.66	0.00535347
0.04	0.67	0.00555972
0.04	0.68	0.00571124
0.04	0.69	0.00580563
0.04	0.7	0.00584034
0.04	0.71	0.00581248
0.04	0.72	0.00571865
0.04	0.73	0.0055547
0.04	0.74	0.00531541
0.04	0.75	0.0049941
0.04	0.76	0.00458209
0.04	0.77	0.00406808
0.04	0.78	0.00343728
0.04	0.79	0.00267034
0.04	0.8	0.00174198
0.04	0.81	0.000619309
0.04	0.82	-0.000740294
0.04	0.83	-0.00239168
0.04	0.84	-0.0044049
0.04	0.85	-0.00686843
0.04	0.86	-0.00989249
0.04	0.87	-0.0136117
0.04	0.88	-0.0181861
0.04	0.89	-0.0237971
0.04	0.9	-0.0306349
0.04	0.91	-0.0388636
0.04	0.92	-0.04854
0.04	0.93	-0.0594245
0.04	0.94	-0.0705307
0.04	0.95	-0.0790207
0.04	0.96	-0.0773936
0.04	0.97	-0.0461971
0.04	0.98	0.0639364
0.04	0.99	0.364293
0.04	1	1
0.05	0	0
0.05	0.01	0.000312629
0.05	0.02	0.00042915
0.05	0.03	0.000384979
0.05	0.04	0.000208449
0.05	0.05	-7.72648e-005
0.05	0.06	-0.000453266
0.05	0.07	-0.000904256
0.05	0.08	-0.00141786
0.05	0.09	-0.00198396
0.05	0.1	-0.00259414
0.05	0.11	-0.00324112
0.05	0.12	-0.00391843
0.05	0.13	-0.00462005
0.05	0.14	-0.00534019
0.05	0.15	-0.00607317
0.05	0.16	-0.0068133
0.05	0.17	-0.00755482
0.05	0.18	-0.00829185
0.05	0.19	-0.00901848
0.05	0.2	-0.00972869
0.05	0.21	-0.0104165
0.05	0.22	-0.0110758
0.05	0.23	-0.0117008
0.05	0.24	-0.0122857
0.05	0.25	-0.0128249
0.05	0.26	-0.0133132
0.05	0.27	-0.0137456
0.05	0.28	-0.0141176
0.05	0.29	-0.014425
0.05	0.3	-0.0146643
0.05	0.31	-0.0148324
0.05	0.32	-0.0149268
0.05	0.33	-0.0149457
0.05	0.34	-0.0148878
0.05	0.35	-0.0147526
0.05	0.36	-0.0145402
0.05	0.37	-0.0142514
0.05	0.38	-0.0138875
0.05	0.39	-0.0134506
0.05	0.4	-0.0129434
0.05	0.41	-0.0123691
0.05	0.42	-0.0117316
0.05	0.43	-0.0110351
0.05	0.44	-0.0102844
0.05	0.45	-0.00948477
0.05	0.46	-0.00864178
0.05	0.47	-0.00776131
0.05	0.48	-0.00684951
0.05	0.49	-0.00591275
0.05	0.5	-0.00495754
0.05	0.51	-0.00399049
0.05	0.52	-0.00301827
0.05	0.53	-0.00204751
0.05	0.54	-0.00108482
0.05	0.55	-0.000136697
0.05	0.56	0.000790498
0.05	0.57	0.00169058
0.05	0.58	0.00255758
0.05	0.59	0.00338576
0.05	0.6	0.00416964
0.05	0.61	0.00490401
0.05	0.62	0.00558394
0.05	0.63	0.00620476
0.05	0.64	0.00676208
0.05	0.65	0.00725172
0.05	0.66	0.0076697
0.05	0.67	0.00801215
0.05	0.68	0.00827524
0.05	0.69	0.00845508
0.05	0.7	0.00854755
0.05	0.71	0.00854809
0.05	0.72	0.00845151
0.05	0.73	0.00825162
0.05	0.74	0.00794086
0.05	0.75	0.00750974
0.05	0.76	0.00694626
0.05	0.77	0.00623504
0.05	0.78	0.00535628
0.05	0.79	0.0042845
0.05	0.8	0.00298695
0.05	0.81	0.00142167
0.05	0.82	-0.000464738
0.05	0.83	-0.00273973
0.05	0.84	-0.00548756
0.05	0.85	-0.00881184
0.05	0.86	-0.0128374
0.05	0.87	-0.0177098
0.05	0.88	-0.0235906
0.05	0.89	-0.0306431
0.05	0.9	-0.0389997
0.05	0.91	-0.0486939
0.05	0.92	-0.059519
0.05	0.93	-0.0707356
0.05	0.94	-0.0804508
0.05	0.95	-0.0842576
0.05	0.96	-0.0721653
0.05	0.97	-0.0217084
0.05	0.98	0.115809
0.05	0.99	0.430004
0.05	1	1
0.06	0	0
0.06	0.01	0.000350189
0.06	0.02	0.000454467
0.06	0.03	0.000356558
0.06	0.04	9.1027e-005
0.06	0.05	-0.000314168
0.06	0.06	-0.000836193
0.06	0.07	-0.00145631
0.06	0.08	-0.00215903
0.06	0.09	-0.00293139
0.06	0.1	-0.00376231
0.06	0.11	-0.00464205
0.06	0.12	-0.00556178
0.06	0.13	-0.00651326
0.06	0.14	-0.00748855
0.06	0.15	-0.00847987
0.06	0.16	-0.00947945
0.06	0.17	-0.0104795
0.06	0.18	-0.0114722
0.06	0.19	-0.0124495
0.06	0.2	-0.0134037
0.06	0.21	-0.0143267
0.06	0.22	-0.0152107
0.06	0.23	-0.016048
0.06	0.24	-0.0168312
0.06	0.25	-0.017553
0.06	0.26	-0.0182068
0.06	0.27	-0.0187861
0.06	0.28	-0.0192852
0.06	0.29	-0.0196988
0.06	0.3	-0.0200222
0.06	0.31	-0.0202516
0.06	0.32	-0.0203839
0.06	0.33	-0.0204167
0.06	0.34	-0.0203484
0.06	0.35	-0.0201782
0.06	0.36	-0.0199062
0.06	0.37	-0.0195333
0.06	0.38	-0.0190613
0.06	0.39	-0.0184928
0.06	0.4	-0.0178309
0.06	0.41	-0.0170798
0.06	0.42	-0.0162441
0.06	0.43	-0.0153294
0.06	0.44	-0.0143416
0.06	0.45	-0.0132872
0.06	0.46	-0.0121733
0.06	0.47	-0.0110073
0.06	0.48	-0.00979703
0.06	0.49	-0.00855056
0.06	0.5	-0.00727622
0.06	0.51	-0.0059825
0.06	0.52	-0.00467797
0.06	0.53	-0.00337128
0.06	0.54	-0.00207102
0.06	0.55	-0.000785739
0.06	0.56	0.000476147
0.06	0.57	0.00170639
0.06	0.58	0.00289694
0.06	0.59	0.00404
0.06	0.6	0.00512805
0.06	0.61	0.00615384
0.06	0.62	0.00711046
0.06	0.63	0.00799126
0.06	0.64	0.00878991
0.06	0.65	0.00950033
0.06	0.66	0.0101167
0.06	0.67	0.0106332
0.06	0.68	0.0110443
0.06	0.69	0.0113442
0.06	0.7	0.0115269
0.06	0.71	0.0115859
0.06	0.72	0.011514
0.06	0.73	0.0113026
0.06	0.74	0.0109419
0.06	0.75	0.0104195
0.06	0.76	0.0097203
0.06	0.77	0.00882516
0.06	0.78	0.00771
0.06	0.79	0.00634431
0.06	0.8	0.00468953
0.06	0.81	0.00269707
0.06	0.82	0.000306172
0.06	0.83	-0.00255842
0.06	0.84	-0.00598859
0.06	0.85	-0.0100943
0.06	0.86	-0.0150031
0.06	0.87	-0.0208564
0.06	0.88	-0.0277975
0.06	0.89	-0.0359466
0.06	0.9	-0.0453489
0.06	0.91	-0.0558737
0.06	0.92	-0.0670202
0.06	0.93	-0.0775395
0.06	0.94	-0.0846909
0.06	0.95	-0.0827418
0.06	0.96	-0.0599137
0.06	0.97	0.00759783
0.06	0.98	0.16513
0.06	0.99	0.482707
0.06	1	1
0.07	0	0
0.07	0.01	0.000358599
0.07	0.02	0.000427129
0.07	0.03	0.000254633
0.07	0.04	-0.000119609
0.07	0.05	-0.000663598
0.07	0.06	-0.00135095
0.07	0.07	-0.0021597
0.07	0.08	-0.00307136
0.07	0.09	-0.00407012
0.07	0.1	-0.00514222
0.07	0.11	-0.00627532
0.07	0.12	-0.00745814
0.07	0.13	-0.00868004
0.07	0.14	-0.00993076
0.07	0.15	-0.0112003
0.07	0.16	-0.0124786
0.07	0.17	-0.0137558
0.07	0.18	-0.0150219
0.07	0.19	-0.0162669
0.07	0.2	-0.0174808
0.07	0.21	-0.0186539
0.07	0.22	-0.0197764
0.07	0.23	-0.0208388
0.07	0.24	-0.0218319
0.07	0.25	-0.0227469
0.07	0.26	-0.0235757
0.07	0.27	-0.0243103
0.07	0.28	-0.0249438
0.07	0.29	-0.0254698
0.07	0.3	-0.0258828
0.07	0.31	-0.026178
0.07	0.32	-0.0263516
0.07	0.33	-0.0264008
0.07	0.34	-0.0263237
0.07	0.35	-0.0261193
0.07	0.36	-0.0257877
0.07	0.37	-0.0253299
0.07	0.38	-0.0247481
0.07	0.39	-0.0240452
0.07	0.4	-0.0232252
0.07	0.41	-0.0222928
0.07	0.42	-0.0212537
0.07	0.43	-0.0201144
0.07	0.44	-0.018882
0.07	0.45	-0.0175643
0.07	0.46	-0.0161697
0.07	0.47	-0.0147072
0.07	0.48	-0.0131862
0.07	0.49	-0.0116164
0.07	0.5	-0.0100078
0.07	0.51	-0.00837073
0.07	0.52	-0.00671569
0.07	0.53	-0.0050532
0.07	0.54	-0.00339386
0.07	0.55	-0.00174821
0.07	0.56	-0.000126729
0.07	0.57	0.00146024
0.07	0.58	0.00300255
0.07	0.59	0.00449028
0.07	0.6	0.00591374
0.07	0.61	0.00726357
0.07	0.62	0.00853067
0.07	0.63	0.00970628
0.07	0.64	0.0107819
0.07	0.65	0.0117494
0.07	0.66	0.0126007
0.07	0.67	0.0133281
0.07	0.68	0.0139237
0.07	0.69	0.0143798
0.07	0.7	0.0146881
0.07	0.71	0.0148401
0.07	0.72	0.0148262
0.07	0.73	0.0146357
0.07	0.74	0.0142561
0.07	0.75	0.0136725
0.07	0.76	0.012867
0.07	0.77	0.0118173
0.07	0.78	0.0104959
0.07	0.79	0.00886879
0.07	0.8	0.00689347
0.07	0.81	0.00451745
0.07	0.82	0.00167626
0.07	0.83	-0.00170838
0.07	0.84	-0.0057298
0.07	0.85	-0.0104965
0.07	0.86	-0.0161295
0.07	0.87	-0.0227542
0.07	0.88	-0.0304831
0.07	0.89	-0.039379
0.07	0.9	-0.0493866
0.07	0.91	-0.0602019
0.07	0.92	-0.0710327
0.07	0.93	-0.0801541
0.07	0.94	-0.0840835
0.07	0.95	-0.0760356
0.07	0.96	-0.0430703
0.07	0.97	0.0387604
0.07	0.98	0.210259
0.07	0.99	0.525259
0.07	1	1
0.08	0	0
0.08	0.01	0.000335491
0.08	0.02	0.000342639
0.08	0.03	7.34079e-005
0.08	0.04	-0.000429671
0.08	0.05	-0.00113139
0.08	0.06	-0.00200231
0.08	0.07	-0.00301752
0.08	0.08	-0.00415567
0.08	0.09	-0.00539821
0.08	0.1	-0.00672867
0.08	0.11	-0.00813212
0.08	0.12	-0.00959471
0.08	0.13	-0.0111033
0.08	0.14	-0.0126453
0.08	0.15	-0.0142083
0.08	0.16	-0.0157799
0.08	0.17	-0.0173481
0.08	0.18	-0.0189007
0.08	0.19	-0.0204255
0.08	0.2	-0.0219106
0.08	0.21	-0.0233442
0.08	0.22	-0.0247146
0.08	0.23	-0.0260106
0.08	0.24	-0.0272212
0.08	0.25	-0.0283362
0.08	0.26	-0.0293458
0.08	0.27	-0.0302408
0.08	0.28	-0.0310131
0.08	0.29	-0.0316553
0.08	0.3	-0.0321607
0.08	0.31	-0.0325241
0.08	0.32	-0.0327408
0.08	0.33	-0.0328077
0.08	0.34	-0.0327225
0.08	0.35	-0.0324841
0.08	0.36	-0.0320926
0.08	0.37	-0.0315494
0.08	0.38	-0.0308567
0.08	0.39	-0.030018
0.08	0.4	-0.029038
0.08	0.41	-0.027922
0.08	0.42	-0.0266768
0.08	0.43	-0.0253097
0.08	0.44	-0.023829
0.08	0.45	-0.0222437
0.08	0.46	-0.0205635
0.08	0.47	-0.0187989
0.08	0.48	-0.0169606
0.08	0.49	-0.01506
0.08	0.5	-0.0131088
0.08	0.51	-0.0111189
0.08	0.52	-0.00910261
0.08	0.53	-0.0070723
0.08	0.54	-0.00504041
0.08	0.55	-0.00301943
0.08	0.56	-0.00102179
0.08	0.57	0.000940142
0.08	0.58	0.00285416
0.08	0.59	0.00470825
0.08	0.6	0.00649059
0.08	0.61	0.00818966
0.08	0.62	0.00979417
0.08	0.63	0.0112931
0.08	0.64	0.0126759
0.08	0.65	0.0139319
0.08	0.66	0.015051
0.08	0.67	0.0160231
0.08	0.68	0.0168382
0.08	0.69	0.017486
0.08	0.7	0.0179563
0.08	0.71	0.018238
0.08	0.72	0.0183193
0.08	0.73	0.0181872
0.08	0.74	0.0178268
0.08	0.75	0.0172209
0.08	0.76	0.0163489
0.08	0.77	0.0151864
0.08	0.78	0.0137035
0.08	0.79	0.0118638
0.08	0.8	0.00962303
0.08	0.81	0.00692735
0.08	0.82	0.00371185
0.08	0.83	-0.000100608
0.08	0.84	-0.00459983
0.08	0.85	-0.00988691
0.08	0.86	-0.0160695
0.08	0.87	-0.0232502
0.08	0.88	-0.0315035
0.08	0.89	-0.0408299
0.08	0.9	-0.0510709
0.08	0.91	-0.0617547
0.08	0.92	-0.0718175
0.08	0.93	-0.0791101
0.08	0.94	-0.079526
0.08	0.95	-0.0654852
0.08	0.96	-0.023395
0.08	0.97	0.0700554
0.08	0.98	0.250858
0.08	0.99	0.560037
0.08	1	1
0.09	0	0
0.09	0.01	0.000280159
0.09	0.02	0.000199203
0.09	0.03	-0.000189733
0.09	0.04	-0.000842091
0.09	0.05	-0.00172026
0.09	0.06	-0.00279224
0.09	0.07	-0.0040305
0.09	0.08	-0.00541104
0.09	0.09	-0.00691266
0.09	0.1	-0.00851625
0.09	0.11	-0.0102043
0.09	0.12	-0.0119603
0.09	0.13	-0.0137688
0.09	0.14	-0.0156145
0.09	0.15	-0.0174827
0.09	0.16	-0.0193588
0.09	0.17	-0.0212283
0.09	0.18	-0.0230768
0.09	0.19	-0.0248901
0.09	0.2	-0.0266541
0.09	0.21	-0.0283552
0.09	0.22	-0.0299797
0.09	0.23	-0.0315146
0.09	0.24	-0.0329474
0.09	0.25	-0.0342662
0.09	0.26	-0.0354598
0.09	0.27	-0.0365178
0.09	0.28	-0.0374309
0.09	0.29	-0.0381905
0.09	0.3	-0.0387893
0.09	0.31	-0.0392211
0.09	0.32	-0.039481
0.09	0.33	-0.0395653
0.09	0.34	-0.0394713
0.09	0.35	-0.0391981
0.09	0.36	-0.0387458
0.09	0.37	-0.0381158
0.09	0.38	-0.0373108
0.09	0.39	-0.0363349
0.09	0.4	-0.0351932
0.09	0.41	-0.0338921
0.09	0.42	-0.0324389
0.09	0.43	-0.0308422
0.09	0.44	-0.0291112
0.09	0.45	-0.0272562
0.09	0.46	-0.0252881
0.09	0.47	-0.0232187
0.09	0.48	-0.0210602
0.09	0.49	-0.0188255
0.09	0.5	-0.0165277
0.09	0.51	-0.0141804
0.09	0.52	-0.0117976
0.09	0.53	-0.00939315
0.09	0.54	-0.0069814
0.09	0.55	-0.00457657
0.09	0.56	-0.00219295
0.09	0.57	0.000155232
0.09	0.58	0.00245384
0.09	0.59	0.00468885
0.09	0.6	0.00684645
0.09	0.61	0.00891301
0.09	0.62	0.0108751
0.09	0.63	0.0127196
0.09	0.64	0.0144336
0.09	0.65	0.0160044
0.09	0.66	0.0174193
0.09	0.67	0.0186662
0.09	0.68	0.0197325
0.09	0.69	0.0206058
0.09	0.7	0.0212733
0.09	0.71	0.0217217
0.09	0.72	0.0219369
0.09	0.73	0.0219036
0.09	0.74	0.0216047
0.09	0.75	0.0210208
0.09	0.76	0.0201296
0.09	0.77	0.0189046
0.09	0.78	0.0173148
0.09	0.79	0.0153229
0.09	0.8	0.0128842
0.09	0.81	0.0099459
0.09	0.82	0.0064452
0.09	0.83	0.00230932
0.09	0.84	-0.00254435
0.09	0.85	-0.00820556
0.09	0.86	-0.0147646
0.09	0.87	-0.0222978
0.09	0.88	-0.0308395
0.09	0.89	-0.0403277
0.09	0.9	-0.050506
0.09	0.91	-0.0607468
0.09	0.92	-0.0697423
0.09	0.93	-0.0749748
0.09	0.94	-0.0718293
0.09	0.95	-0.0521563
0.09	0.96	-0.00210128
0.09	0.97	0.100547
0.09	0.98	0.287175
0.09	0.99	0.588892
0.09	1	1
0.1	0	0
0.1	0.01	0.00019294
0.1	0.02	-3.16867e-006
0.1	0.03	-0.000535185
0.1	0.04	-0.00135746
0.1	0.05	-0.00243068
0.1	0.06	-0.00372073
0.1	0.07	-0.00519779
0.1	0.08	-0.00683544
0.1	0.09	-0.00860996
0.1	0.1	-0.0104997
0.1	0.11	-0.0124846
0.1	0.12	-0.0145456
0.1	0.13	-0.0166647
0.1	0.14	-0.0188242
0.1	0.15	-0.0210069
0.1	0.16	-0.0231958
0.1	0.17	-0.0253742
0.1	0.18	-0.0275255
0.1	0.19	-0.0296334
0.1	0.2	-0.0316817
0.1	0.21	-0.0336547
0.1	0.22	-0.035537
0.1	0.23	-0.0373139
0.1	0.24	-0.0389712
0.1	0.25	-0.0404955
0.1	0.26	-0.0418741
0.1	0.27	-0.0430956
0.1	0.28	-0.0441492
0.1	0.29	-0.0450258
0.1	0.3	-0.045717
0.1	0.31	-0.046216
0.1	0.32	-0.0465174
0.1	0.33	-0.046617
0.1	0.34	-0.0465122
0.1	0.35	-0.0462019
0.1	0.36	-0.0456862
0.1	0.37	-0.044967
0.1	0.38	-0.0440474
0.1	0.39	-0.0429319
0.1	0.4	-0.0416263
0.1	0.41	-0.0401378
0.1	0.42	-0.0384748
0.1	0.43	-0.0366466
0.1	0.44	-0.0346637
0.1	0.45	-0.0325375
0.1	0.46	-0.0302802
0.1	0.47	-0.0279048
0.1	0.48	-0.025425
0.1	0.49	-0.0228549
0.1	0.5	-0.0202093
0.1	0.51	-0.0175031
0.1	0.52	-0.0147517
0.1	0.53	-0.0119709
0.1	0.54	-0.00917629
0.1	0.55	-0.00638385
0.1	0.56	-0.0036095
0.1	0.57	-0.0008692
0.1	0.58	0.00182116
0.1	0.59	0.00444575
0.1	0.6	0.0069889
0.1	0.61	0.00943503
0.1	0.62	0.0117688
0.1	0.63	0.0139749
0.1	0.64	0.0160385
0.1	0.65	0.0179445
0.1	0.66	0.0196784
0.1	0.67	0.0212253
0.1	0.68	0.0225707
0.1	0.69	0.0236997
0.1	0.7	0.0245974
0.1	0.71	0.025248
0.1	0.72	0.0256353
0.1	0.73	0.0257418
0.1	0.74	0.0255484
0.1	0.75	0.0250339
0.1	0.76	0.0241745
0.1	0.77	0.0229427
0.1	0.78	0.0213067
0.1	0.79	0.0192295
0.1	0.8	0.0166677
0.1	0.81	0.0135706
0.1	0.82	0.00987993
0.1	0.83	0.00552923
0.1	0.84	0.000445437
0.1	0.85	-0.00544766
0.1	0.86	-0.0122212
0.1	0.87	-0.0199245
0.1	0.88	-0.0285523
0.1	0.89	-0.037984
0.1	0.9	-0.0478731
0.1	0.91	-0.0574517
0.1	0.92	-0.0651968
0.1	0.93	-0.0682777
0.1	0.94	-0.0616757
0.1	0.95	-0.0368605
0.1	0.96	0.02
0.1	0.97	0.129778
0.1	0.98	0.319685
0.1	0.99	0.613219
0.1	1	1
0.11	0	0
0.11	0.01	7.47672e-005
0.11	0.02	-0.000263348
0.11	0.03	-0.000961907
0.11	0.04	-0.00197483
0.11	0.05	-0.0032616
0.11	0.06	-0.00478644
0.11	0.07	-0.00651753
0.11	0.08	-0.00842623
0.11	0.09	-0.0104865
0.11	0.1	-0.0126741
0.11	0.11	-0.0149667
0.11	0.12	-0.0173427
0.11	0.13	-0.0197815
0.11	0.14	-0.022263
0.11	0.15	-0.0247676
0.11	0.16	-0.027276
0.11	0.17	-0.0297692
0.11	0.18	-0.0322284
0.11	0.19	-0.034635
0.11	0.2	-0.036971
0.11	0.21	-0.0392186
0.11	0.22	-0.0413607
0.11	0.23	-0.0433809
0.11	0.24	-0.0452632
0.11	0.25	-0.0469929
0.11	0.26	-0.048556
0.11	0.27	-0.0499397
0.11	0.28	-0.0511323
0.11	0.29	-0.0521236
0.11	0.3	-0.0529046
0.11	0.31	-0.0534679
0.11	0.32	-0.0538074
0.11	0.33	-0.0539189
0.11	0.34	-0.0537996
0.11	0.35	-0.0534483
0.11	0.36	-0.0528654
0.11	0.37	-0.0520531
0.11	0.38	-0.0510149
0.11	0.39	-0.049756
0.11	0.4	-0.0482831
0.11	0.41	-0.046604
0.11	0.42	-0.0447281
0.11	0.43	-0.0426659
0.11	0.44	-0.0404288
0.11	0.45	-0.0380296
0.11	0.46	-0.0354816
0.11	0.47	-0.0327993
0.11	0.48	-0.0299974
0.11	0.49	-0.0270916
0.11	0.5	-0.0240979
0.11	0.51	-0.0210328
0.11	0.52	-0.0179131
0.11	0.53	-0.0147558
0.11	0.54	-0.0115781
0.11	0.55	-0.00839745
0.11	0.56	-0.00523121
0.11	0.57	-0.00209688
0.11	0.58	0.000988101
0.11	0.59	0.0040063
0.11	0.6	0.00694037
0.11	0.61	0.00977305
0.11	0.62	0.0124872
0.11	0.63	0.0150657
0.11	0.64	0.0174917
0.11	0.65	0.0197483
0.11	0.66	0.0218188
0.11	0.67	0.0236864
0.11	0.68	0.0253342
0.11	0.69	0.0267453
0.11	0.7	0.0279025
0.11	0.71	0.0287881
0.11	0.72	0.0293836
0.11	0.73	0.0296695
0.11	0.74	0.0296252
0.11	0.75	0.0292279
0.11	0.76	0.0284526
0.11	0.77	0.0272714
0.11	0.78	0.0256524
0.11	0.79	0.0235597
0.11	0.8	0.0209519
0.11	0.81	0.0177821
0.11	0.82	0.0139972
0.11	0.83	0.00953871
0.11	0.84	0.00434409
0.11	0.85	-0.00164847
0.11	0.86	-0.00849084
0.11	0.87	-0.0162061
0.11	0.88	-0.0247522
0.11	0.89	-0.0339552
0.11	0.9	-0.0433875
0.11	0.91	-0.0521569
0.11	0.92	-0.0585536
0.11	0.93	-0.0594849
0.11	0.94	-0.0496209
0.11	0.95	-0.0202027
0.11	0.96	0.0423812
0.11	0.97	0.157575
0.11	0.98	0.348911
0.11	0.99	0.634063
0.11	1	1
0.12	0	0
0.12	0.01	-7.31394e-005
0.12	0.02	-0.00057961
0.12	0.03	-0.00146803
0.12	0.04	-0.00269229
0.12	0.05	-0.00421107
0.12	0.06	-0.00598725
0.12	0.07	-0.00798725
0.12	0.08	-0.0101804
0.12	0.09	-0.0125386
0.12	0.1	-0.0150352
0.12	0.11	-0.0176453
0.12	0.12	-0.0203452
0.12	0.13	-0.0231116
0.12	0.14	-0.0259222
0.12	0.15	-0.0287549
0.12	0.16	-0.0315881
0.12	0.17	-0.0344005
0.12	0.18	-0.0371711
0.12	0.19	-0.0398794
0.12	0.2	-0.0425051
0.12	0.21	-0.0450288
0.12	0.22	-0.0474314
0.12	0.23	-0.0496947
0.12	0.24	-0.0518014
0.12	0.25	-0.0537352
0.12	0.26	-0.0554808
0.12	0.27	-0.0570242
0.12	0.28	-0.0583527
0.12	0.29	-0.0594553
0.12	0.3	-0.0603221
0.12	0.31	-0.0609452
0.12	0.32	-0.0613183
0.12	0.33	-0.0614366
0.12	0.34	-0.0612975
0.12	0.35	-0.0608998
0.12	0.36	-0.0602442
0.12	0.37	-0.0593333
0.12	0.38	-0.0581712
0.12	0.39	-0.0567637
0.12	0.4	-0.0551183
0.12	0.41	-0.053244
0.12	0.42	-0.0511509
0.12	0.43	-0.0488507
0.12	0.44	-0.0463561
0.12	0.45	-0.0436811
0.12	0.46	-0.0408402
0.12	0.47	-0.0378492
0.12	0.48	-0.0347242
0.12	0.49	-0.0314822
0.12	0.5	-0.0281405
0.12	0.51	-0.024717
0.12	0.52	-0.0212298
0.12	0.53	-0.0176972
0.12	0.54	-0.0141377
0.12	0.55	-0.01057
0.12	0.56	-0.00701299
0.12	0.57	-0.00348533
0.12	0.58	-5.87423e-006
0.12	0.59	0.00340658
0.12	0.6	0.00673326
0.12	0.61	0.00995543
0.12	0.62	0.0130544
0.12	0.63	0.0160116
0.12	0.64	0.0188083
0.12	0.65	0.021426
0.12	0.66	0.0238461
0.12	0.67	0.02605
0.12	0.68	0.028019
0.12	0.69	0.0297342
0.12	0.7	0.0311763
0.12	0.71	0.0323258
0.12	0.72	0.0331623
0.12	0.73	0.0336648
0.12	0.74	0.033811
0.12	0.75	0.0335769
0.12	0.76	0.032937
0.12	0.77	0.0318629
0.12	0.78	0.0303236
0.12	0.79	0.0282845
0.12	0.8	0.025707
0.12	0.81	0.0225485
0.12	0.82	0.0187619
0.12	0.83	0.0142969
0.12	0.84	0.00910192
0.12	0.85	0.00312931
0.12	0.86	-0.00365445
0.12	0.87	-0.0112482
0.12	0.88	-0.0195768
0.12	0.89	-0.0284184
0.12	0.9	-0.0372737
0.12	0.91	-0.0451416
0.12	0.92	-0.0501515
0.12	0.93	-0.0489949
0.12	0.94	-0.0361097
0.12	0.95	-0.00262822
0.12	0.96	0.0647087
0.12	0.97	0.183919
0.12	0.98	0.375353
0.12	0.99	0.652202
0.12	1	1
0.13	0	0
0.13	0.01	-0.00024949
0.13	0.02	-0.000949999
0.13	0.03	-0.0020513
0.13	0.04	-0.00350747
0.13	0.05	-0.00527664
0.13	0.06	-0.00732059
0.13	0.07	-0.00960422
0.13	0.08	-0.0120951
0.13	0.09	-0.0147628
0.13	0.1	-0.0175788
0.13	0.11	-0.0205159
0.13	0.12	-0.0235478
0.13	0.13	-0.026649
0.13	0.14	-0.0297949
0.13	0.15	-0.0329609
0.13	0.16	-0.0361232
0.13	0.17	-0.0392583
0.13	0.18	-0.042343
0.13	0.19	-0.0453548
0.13	0.2	-0.0482714
0.13	0.21	-0.0510714
0.13	0.22	-0.0537341
0.13	0.23	-0.0562396
0.13	0.24	-0.0585689
0.13	0.25	-0.0607044
0.13	0.26	-0.0626295
0.13	0.27	-0.064329
0.13	0.28	-0.0657893
0.13	0.29	-0.0669984
0.13	0.3	-0.0679459
0.13	0.31	-0.0686232
0.13	0.32	-0.0690237
0.13	0.33	-0.0691426
0.13	0.34	-0.068977
0.13	0.35	-0.068526
0.13	0.36	-0.0677908
0.13	0.37	-0.0667743
0.13	0.38	-0.0654813
0.13	0.39	-0.0639185
0.13	0.4	-0.0620941
0.13	0.41	-0.0600182
0.13	0.42	-0.0577022
0.13	0.43	-0.0551587
0.13	0.44	-0.052402
0.13	0.45	-0.049447
0.13	0.46	-0.0463099
0.13	0.47	-0.0430075
0.13	0.48	-0.0395576
0.13	0.49	-0.0359783
0.13	0.5	-0.0322882
0.13	0.51	-0.0285066
0.13	0.52	-0.0246527
0.13	0.53	-0.0207462
0.13	0.54	-0.0168068
0.13	0.55	-0.0128543
0.13	0.56	-0.00890877
0.13	0.57	-0.00499005
0.13	0.58	-0.00111815
0.13	0.59	0.00268697
0.13	0.6	0.00640536
0.13	0.61	0.010017
0.13	0.62	0.0135021
0.13	0.63	0.0168405
0.13	0.64	0.0200124
0.13	0.65	0.0229977
0.13	0.66	0.0257763
0.13	0.67	0.0283281
0.13	0.68	0.0306326
0.13	0.69	0.0326694
0.13	0.7	0.0344176
0.13	0.71	0.0358559
0.13	0.72	0.0369624
0.13	0.73	0.0377148
0.13	0.74	0.0380893
0.13	0.75	0.0380615
0.13	0.76	0.037605
0.13	0.77	0.0366918
0.13	0.78	0.0352918
0.13	0.79	0.0333722
0.13	0.8	0.0308976
0.13	0.81	0.0278296
0.13	0.82	0.0241275
0.13	0.83	0.019749
0.13	0.84	0.0146532
0.13	0.85	0.00880558
0.13	0.86	0.0021894
0.13	0.87	-0.00517246
0.13	0.88	-0.0131755
0.13	0.89	-0.0215558
0.13	0.9	-0.0297512
0.13	0.91	-0.0366652
0.13	0.92	-0.0402903
0.13	0.93	-0.0371429
0.13	0.94	-0.0214952
0.13	0.95	0.0155371
0.13	0.96	0.0867786
0.13	0.97	0.208878
0.13	0.98	0.39945
0.13	0.99	0.668219
0.13	1	1
0.14	0	0
0.14	0.01	-0.000453064
0.14	0.02	-0.00137257
0.14	0.03	-0.00270938
0.14	0.04	-0.00441785
0.14	0.05	-0.00645569
0.14	0.06	-0.00878375
0.14	0.07	-0.0113656
0.14	0.08	-0.014167
0.14	0.09	-0.0171558
0.14	0.1	-0.0203013
0.14	0.11	-0.0235741
0.14	0.12	-0.0269457
0.14	0.13	-0.0303884