TITLE = v_vectors
VARIABLES = "x", "y", "V"
Zone T = "BLOCK1", i=101, j=101, F=POINT


0	0	0
0	0.01	0
0	0.02	0
0	0.03	0
0	0.04	0
0	0.05	0
0	0.06	0
0	0.07	0
0	0.08	0
0	0.09	0
0	0.1	0
0	0.11	0
0	0.12	0
0	0.13	0
0	0.14	0
0	0.15	0
0	0.16	0
0	0.17	0
0	0.18	0
0	0.19	0
0	0.2	0
0	0.21	0
0	0.22	0
0	0.23	0
0	0.24	0
0	0.25	0
0	0.26	0
0	0.27	0
0	0.28	0
0	0.29	0
0	0.3	0
0	0.31	0
0	0.32	0
0	0.33	0
0	0.34	0
0	0.35	0
0	0.36	0
0	0.37	0
0	0.38	0
0	0.39	0
0	0.4	0
0	0.41	0
0	0.42	0
0	0.43	0
0	0.44	0
0	0.45	0
0	0.46	0
0	0.47	0
0	0.48	0
0	0.49	0
0	0.5	0
0	0.51	0
0	0.52	0
0	0.53	0
0	0.54	0
0	0.55	0
0	0.56	0
0	0.57	0
0	0.58	0
0	0.59	0
0	0.6	0
0	0.61	0
0	0.62	0
0	0.63	0
0	0.64	0
0	0.65	0
0	0.66	0
0	0.67	0
0	0.68	0
0	0.69	0
0	0.7	0
0	0.71	0
0	0.72	0
0	0.73	0
0	0.74	0
0	0.75	0
0	0.76	0
0	0.77	0
0	0.78	0
0	0.79	0
0	0.8	0
0	0.81	0
0	0.82	0
0	0.83	0
0	0.84	0
0	0.85	0
0	0.86	0
0	0.87	0
0	0.88	0
0	0.89	0
0	0.9	0
0	0.91	0
0	0.92	0
0	0.93	0
0	0.94	0
0	0.95	0
0	0.96	0
0	0.97	0
0	0.98	0
0	0.99	0
0	1	0
0.01	0	0
0.01	0.01	-2.72015e-005
0.01	0.02	-9.23812e-005
0.01	0.03	-0.000173535
0.01	0.04	-0.000251217
0.01	0.05	-0.000310129
0.01	0.06	-0.000338585
0.01	0.07	-0.000327598
0.01	0.08	-0.000270097
0.01	0.09	-0.000160366
0.01	0.1	6.32158e-006
0.01	0.11	0.000233945
0.01	0.12	0.000525868
0.01	0.13	0.000884915
0.01	0.14	0.0013134
0.01	0.15	0.00181314
0.01	0.16	0.00238543
0.01	0.17	0.00303102
0.01	0.18	0.00375009
0.01	0.19	0.00454224
0.01	0.2	0.00540642
0.01	0.21	0.00634097
0.01	0.22	0.00734355
0.01	0.23	0.00841119
0.01	0.24	0.00954022
0.01	0.25	0.0107264
0.01	0.26	0.0119647
0.01	0.27	0.0132497
0.01	0.28	0.0145753
0.01	0.29	0.015935
0.01	0.3	0.0173216
0.01	0.31	0.0187278
0.01	0.32	0.0201458
0.01	0.33	0.0215676
0.01	0.34	0.022985
0.01	0.35	0.0243898
0.01	0.36	0.0257737
0.01	0.37	0.0271284
0.01	0.38	0.028446
0.01	0.39	0.0297187
0.01	0.4	0.0309389
0.01	0.41	0.0320996
0.01	0.42	0.0331941
0.01	0.43	0.0342164
0.01	0.44	0.0351609
0.01	0.45	0.0360226
0.01	0.46	0.0367974
0.01	0.47	0.0374817
0.01	0.48	0.0380727
0.01	0.49	0.0385682
0.01	0.5	0.0389671
0.01	0.51	0.0392687
0.01	0.52	0.0394731
0.01	0.53	0.0395813
0.01	0.54	0.0395949
0.01	0.55	0.0395161
0.01	0.56	0.0393479
0.01	0.57	0.0390938
0.01	0.58	0.038758
0.01	0.59	0.0383452
0.01	0.6	0.0378604
0.01	0.61	0.0373093
0.01	0.62	0.036698
0.01	0.63	0.0360328
0.01	0.64	0.0353204
0.01	0.65	0.0345678
0.01	0.66	0.0337823
0.01	0.67	0.0329713
0.01	0.68	0.0321427
0.01	0.69	0.0313045
0.01	0.7	0.0304647
0.01	0.71	0.0296321
0.01	0.72	0.0288154
0.01	0.73	0.028024
0.01	0.74	0.027268
0.01	0.75	0.0265582
0.01	0.76	0.0259065
0.01	0.77	0.0253263
0.01	0.78	0.0248333
0.01	0.79	0.0244455
0.01	0.8	0.0241852
0.01	0.81	0.0240792
0.01	0.82	0.0241614
0.01	0.83	0.0244745
0.01	0.84	0.0250733
0.01	0.85	0.0260286
0.01	0.86	0.0274326
0.01	0.87	0.0294053
0.01	0.88	0.0321041
0.01	0.89	0.0357352
0.01	0.9	0.0405695
0.01	0.91	0.0469637
0.01	0.92	0.05539
0.01	0.93	0.0664751
0.01	0.94	0.0810461
0.01	0.95	0.100145
0.01	0.96	0.124837
0.01	0.97	0.155063
0.01	0.98	0.184589
0.01	0.99	0.180136
0.01	1	0
0.02	0	0
0.02	0.01	-4.8155e-005
0.02	0.02	-0.000145642
0.02	0.03	-0.00025816
0.02	0.04	-0.000357121
0.02	0.05	-0.00041884
0.02	0.06	-0.000424029
0.02	0.07	-0.000357057
0.02	0.08	-0.000205185
0.02	0.09	4.20852e-005
0.02	0.1	0.000393496
0.02	0.11	0.000856371
0.02	0.12	0.00143684
0.02	0.13	0.00213996
0.02	0.14	0.00296979
0.02	0.15	0.0039294
0.02	0.16	0.00502089
0.02	0.17	0.00624534
0.02	0.18	0.00760279
0.02	0.19	0.00909222
0.02	0.2	0.0107115
0.02	0.21	0.0124573
0.02	0.22	0.0143254
0.02	0.23	0.0163101
0.02	0.24	0.0184049
0.02	0.25	0.020602
0.02	0.26	0.0228925
0.02	0.27	0.0252668
0.02	0.28	0.0277141
0.02	0.29	0.0302227
0.02	0.3	0.0327804
0.02	0.31	0.0353742
0.02	0.32	0.0379904
0.02	0.33	0.0406153
0.02	0.34	0.0432344
0.02	0.35	0.0458333
0.02	0.36	0.0483977
0.02	0.37	0.0509131
0.02	0.38	0.0533654
0.02	0.39	0.0557409
0.02	0.4	0.0580263
0.02	0.41	0.060209
0.02	0.42	0.062277
0.02	0.43	0.0642194
0.02	0.44	0.0660259
0.02	0.45	0.0676874
0.02	0.46	0.0691959
0.02	0.47	0.0705446
0.02	0.48	0.0717277
0.02	0.49	0.0727409
0.02	0.5	0.0735809
0.02	0.51	0.0742459
0.02	0.52	0.0747352
0.02	0.53	0.0750496
0.02	0.54	0.075191
0.02	0.55	0.0751625
0.02	0.56	0.0749684
0.02	0.57	0.0746142
0.02	0.58	0.0741065
0.02	0.59	0.0734527
0.02	0.6	0.0726615
0.02	0.61	0.0717422
0.02	0.62	0.0707052
0.02	0.63	0.0695614
0.02	0.64	0.0683225
0.02	0.65	0.067001
0.02	0.66	0.0656099
0.02	0.67	0.0641626
0.02	0.68	0.0626733
0.02	0.69	0.0611567
0.02	0.7	0.059628
0.02	0.71	0.0581032
0.02	0.72	0.0565989
0.02	0.73	0.0551327
0.02	0.74	0.0537236
0.02	0.75	0.052392
0.02	0.76	0.0511602
0.02	0.77	0.0500533
0.02	0.78	0.0491001
0.02	0.79	0.0483339
0.02	0.8	0.0477941
0.02	0.81	0.0475285
0.02	0.82	0.0475954
0.02	0.83	0.048067
0.02	0.84	0.0490339
0.02	0.85	0.0506097
0.02	0.86	0.052938
0.02	0.87	0.0561999
0.02	0.88	0.0606229
0.02	0.89	0.0664912
0.02	0.9	0.0741544
0.02	0.91	0.0840334
0.02	0.92	0.0966141
0.02	0.93	0.112408
0.02	0.94	0.131827
0.02	0.95	0.154826
0.02	0.96	0.179949
0.02	0.97	0.201836
0.02	0.98	0.205102
0.02	0.99	0.152633
0.02	1	0
0.03	0	0
0.03	0.01	-5.48408e-005
0.03	0.02	-0.000158387
0.03	0.03	-0.000267975
0.03	0.04	-0.000349535
0.03	0.05	-0.000374612
0.03	0.06	-0.000319303
0.03	0.07	-0.000163569
0.03	0.08	0.000109378
0.03	0.09	0.000513621
0.03	0.1	0.00106099
0.03	0.11	0.00176138
0.03	0.12	0.00262304
0.03	0.13	0.00365265
0.03	0.14	0.00485547
0.03	0.15	0.00623537
0.03	0.16	0.00779482
0.03	0.17	0.0095349
0.03	0.18	0.0114553
0.03	0.19	0.0135541
0.03	0.2	0.0158283
0.03	0.21	0.0182729
0.03	0.22	0.020882
0.03	0.23	0.0236478
0.03	0.24	0.0265612
0.03	0.25	0.0296119
0.03	0.26	0.0327881
0.03	0.27	0.0360766
0.03	0.28	0.0394634
0.03	0.29	0.0429332
0.03	0.3	0.0464698
0.03	0.31	0.0500561
0.03	0.32	0.0536745
0.03	0.33	0.0573067
0.03	0.34	0.0609343
0.03	0.35	0.0645382
0.03	0.36	0.0680997
0.03	0.37	0.0715999
0.03	0.38	0.0750204
0.03	0.39	0.0783429
0.03	0.4	0.0815501
0.03	0.41	0.084625
0.03	0.42	0.0875517
0.03	0.43	0.0903153
0.03	0.44	0.0929019
0.03	0.45	0.0952989
0.03	0.46	0.097495
0.03	0.47	0.0994803
0.03	0.48	0.101246
0.03	0.49	0.102786
0.03	0.5	0.104095
0.03	0.51	0.105169
0.03	0.52	0.106005
0.03	0.53	0.106604
0.03	0.54	0.106967
0.03	0.55	0.107096
0.03	0.56	0.106997
0.03	0.57	0.106674
0.03	0.58	0.106136
0.03	0.59	0.105392
0.03	0.6	0.104451
0.03	0.61	0.103326
0.03	0.62	0.102029
0.03	0.63	0.100574
0.03	0.64	0.0989765
0.03	0.65	0.0972528
0.03	0.66	0.0954198
0.03	0.67	0.0934957
0.03	0.68	0.0914996
0.03	0.69	0.0894514
0.03	0.7	0.087372
0.03	0.71	0.0852834
0.03	0.72	0.0832088
0.03	0.73	0.0811728
0.03	0.74	0.0792015
0.03	0.75	0.0773232
0.03	0.76	0.0755689
0.03	0.77	0.073973
0.03	0.78	0.0725741
0.03	0.79	0.0714165
0.03	0.8	0.0705518
0.03	0.81	0.0700408
0.03	0.82	0.0699563
0.03	0.83	0.0703859
0.03	0.84	0.0714361
0.03	0.85	0.0732366
0.03	0.86	0.0759452
0.03	0.87	0.0797524
0.03	0.88	0.0848854
0.03	0.89	0.0916086
0.03	0.9	0.100217
0.03	0.91	0.111015
0.03	0.92	0.12426
0.03	0.93	0.140044
0.03	0.94	0.158029
0.03	0.95	0.176904
0.03	0.96	0.193259
0.03	0.97	0.19938
0.03	0.98	0.179704
0.03	0.99	0.11037
0.03	1	0
0.04	0	0
0.04	0.01	-5.05424e-005
0.04	0.02	-0.000139634
0.04	0.03	-0.000220979
0.04	0.04	-0.000257455
0.04	0.05	-0.000217892
0.04	0.06	-7.56844e-005
0.04	0.07	0.000191929
0.04	0.08	0.000604377
0.04	0.09	0.00117818
0.04	0.1	0.00192732
0.04	0.11	0.00286351
0.04	0.12	0.00399642
0.04	0.13	0.00533383
0.04	0.14	0.00688171
0.04	0.15	0.00864431
0.04	0.16	0.0106241
0.04	0.17	0.012822
0.04	0.18	0.0152371
0.04	0.19	0.0178667
0.04	0.2	0.0207065
0.04	0.21	0.0237505
0.04	0.22	0.0269909
0.04	0.23	0.0304184
0.04	0.24	0.0340221
0.04	0.25	0.0377893
0.04	0.26	0.041706
0.04	0.27	0.0457568
0.04	0.28	0.049925
0.04	0.29	0.0541927
0.04	0.3	0.0585411
0.04	0.31	0.0629503
0.04	0.32	0.0673998
0.04	0.33	0.0718685
0.04	0.34	0.0763347
0.04	0.35	0.0807767
0.04	0.36	0.0851726
0.04	0.37	0.0895005
0.04	0.38	0.0937388
0.04	0.39	0.0978666
0.04	0.4	0.101863
0.04	0.41	0.105709
0.04	0.42	0.109384
0.04	0.43	0.112872
0.04	0.44	0.116155
0.04	0.45	0.119218
0.04	0.46	0.122048
0.04	0.47	0.124631
0.04	0.48	0.126957
0.04	0.49	0.129017
0.04	0.5	0.130803
0.04	0.51	0.132309
0.04	0.52	0.133532
0.04	0.53	0.134469
0.04	0.54	0.135122
0.04	0.55	0.13549
0.04	0.56	0.135579
0.04	0.57	0.135393
0.04	0.58	0.13494
0.04	0.59	0.134228
0.04	0.6	0.13327
0.04	0.61	0.132076
0.04	0.62	0.130661
0.04	0.63	0.129041
0.04	0.64	0.127232
0.04	0.65	0.125253
0.04	0.66	0.123125
0.04	0.67	0.120867
0.04	0.68	0.118504
0.04	0.69	0.116057
0.04	0.7	0.113554
0.04	0.71	0.11102
0.04	0.72	0.108483
0.04	0.73	0.105973
0.04	0.74	0.103522
0.04	0.75	0.101165
0.04	0.76	0.0989386
0.04	0.77	0.0968835
0.04	0.78	0.0950455
0.04	0.79	0.0934756
0.04	0.8	0.092232
0.04	0.81	0.0913816
0.04	0.82	0.0910025
0.04	0.83	0.0911855
0.04	0.84	0.0920375
0.04	0.85	0.0936834
0.04	0.86	0.0962685
0.04	0.87	0.0999587
0.04	0.88	0.104938
0.04	0.89	0.111401
0.04	0.9	0.119528
0.04	0.91	0.129447
0.04	0.92	0.141143
0.04	0.93	0.154301
0.04	0.94	0.168001
0.04	0.95	0.180175
0.04	0.96	0.186661
0.04	0.97	0.179776
0.04	0.98	0.147249
0.04	0.99	0.0778019
0.04	1	0
0.05	0	0
0.05	0.01	-3.93146e-005
0.05	0.02	-9.9421e-005
0.05	0.03	-0.000134314
0.05	0.04	-0.000105996
0.05	0.05	1.78901e-005
0.05	0.06	0.000265309
0.05	0.07	0.000660509
0.05	0.08	0.00122445
0.05	0.09	0.00197511
0.05	0.1	0.00292781
0.05	0.11	0.00409535
0.05	0.12	0.00548826
0.05	0.13	0.0071149
0.05	0.14	0.00898155
0.05	0.15	0.0110925
0.05	0.16	0.01345
0.05	0.17	0.0160545
0.05	0.18	0.0189044
0.05	0.19	0.0219963
0.05	0.2	0.0253247
0.05	0.21	0.0288824
0.05	0.22	0.0326605
0.05	0.23	0.036648
0.05	0.24	0.0408325
0.05	0.25	0.0451998
0.05	0.26	0.0497343
0.05	0.27	0.0544186
0.05	0.28	0.0592344
0.05	0.29	0.064162
0.05	0.3	0.0691806
0.05	0.31	0.0742685
0.05	0.32	0.0794033
0.05	0.33	0.084562
0.05	0.34	0.089721
0.05	0.35	0.0948567
0.05	0.36	0.0999451
0.05	0.37	0.104963
0.05	0.38	0.109885
0.05	0.39	0.114691
0.05	0.4	0.119356
0.05	0.41	0.123858
0.05	0.42	0.128178
0.05	0.43	0.132295
0.05	0.44	0.136191
0.05	0.45	0.139847
0.05	0.46	0.143249
0.05	0.47	0.14638
0.05	0.48	0.149229
0.05	0.49	0.151785
0.05	0.5	0.154037
0.05	0.51	0.155978
0.05	0.52	0.157603
0.05	0.53	0.158908
0.05	0.54	0.159891
0.05	0.55	0.160552
0.05	0.56	0.160894
0.05	0.57	0.16092
0.05	0.58	0.160638
0.05	0.59	0.160054
0.05	0.6	0.159181
0.05	0.61	0.158028
0.05	0.62	0.156611
0.05	0.63	0.154946
0.05	0.64	0.15305
0.05	0.65	0.150942
0.05	0.66	0.148644
0.05	0.67	0.146179
0.05	0.68	0.143571
0.05	0.69	0.140846
0.05	0.7	0.138032
0.05	0.71	0.135159
0.05	0.72	0.132259
0.05	0.73	0.129364
0.05	0.74	0.126511
0.05	0.75	0.123738
0.05	0.76	0.121086
0.05	0.77	0.118599
0.05	0.78	0.116328
0.05	0.79	0.114327
0.05	0.8	0.112654
0.05	0.81	0.111379
0.05	0.82	0.110577
0.05	0.83	0.110333
0.05	0.84	0.110743
0.05	0.85	0.111916
0.05	0.86	0.113969
0.05	0.87	0.117027
0.05	0.88	0.121214
0.05	0.89	0.126638
0.05	0.9	0.133363
0.05	0.91	0.141352
0.05	0.92	0.150374
0.05	0.93	0.159833
0.05	0.94	0.168489
0.05	0.95	0.173993
0.05	0.96	0.17221
0.05	0.97	0.156513
0.05	0.98	0.118415
0.05	0.99	0.055319
0.05	1	0
0.06	0	0
0.06	0.01	-2.41777e-005
0.06	0.02	-4.59703e-005
0.06	0.03	-2.21564e-005
0.06	0.04	8.4375e-005
0.06	0.05	0.000305902
0.06	0.06	0.000670709
0.06	0.07	0.00120359
0.06	0.08	0.00192615
0.06	0.09	0.00285709
0.06	0.1	0.00401231
0.06	0.11	0.00540516
0.06	0.12	0.00704651
0.06	0.13	0.00894487
0.06	0.14	0.0111065
0.06	0.15	0.0135354
0.06	0.16	0.0162336
0.06	0.17	0.0192007
0.06	0.18	0.0224345
0.06	0.19	0.0259307
0.06	0.2	0.0296829
0.06	0.21	0.0336829
0.06	0.22	0.0379204
0.06	0.23	0.0423835
0.06	0.24	0.0470584
0.06	0.25	0.0519297
0.06	0.26	0.0569804
0.06	0.27	0.0621921
0.06	0.28	0.067545
0.06	0.29	0.0730183
0.06	0.3	0.0785898
0.06	0.31	0.0842367
0.06	0.32	0.0899354
0.06	0.33	0.0956616
0.06	0.34	0.101391
0.06	0.35	0.107097
0.06	0.36	0.112757
0.06	0.37	0.118345
0.06	0.38	0.123836
0.06	0.39	0.129206
0.06	0.4	0.13443
0.06	0.41	0.139487
0.06	0.42	0.144354
0.06	0.43	0.149009
0.06	0.44	0.153433
0.06	0.45	0.157607
0.06	0.46	0.161513
0.06	0.47	0.165135
0.06	0.48	0.168459
0.06	0.49	0.171472
0.06	0.5	0.174162
0.06	0.51	0.176522
0.06	0.52	0.178543
0.06	0.53	0.180219
0.06	0.54	0.181548
0.06	0.55	0.182528
0.06	0.56	0.18316
0.06	0.57	0.183446
0.06	0.58	0.18339
0.06	0.59	0.183001
0.06	0.6	0.182286
0.06	0.61	0.181256
0.06	0.62	0.179926
0.06	0.63	0.17831
0.06	0.64	0.176425
0.06	0.65	0.17429
0.06	0.66	0.171927
0.06	0.67	0.169359
0.06	0.68	0.166611
0.06	0.69	0.16371
0.06	0.7	0.160686
0.06	0.71	0.15757
0.06	0.72	0.154394
0.06	0.73	0.151195
0.06	0.74	0.14801
0.06	0.75	0.14488
0.06	0.76	0.141848
0.06	0.77	0.138959
0.06	0.78	0.136265
0.06	0.79	0.13382
0.06	0.8	0.131681
0.06	0.81	0.129913
0.06	0.82	0.128585
0.06	0.83	0.127772
0.06	0.84	0.127554
0.06	0.85	0.128014
0.06	0.86	0.129239
0.06	0.87	0.131306
0.06	0.88	0.134283
0.06	0.89	0.138199
0.06	0.9	0.143019
0.06	0.91	0.148586
0.06	0.92	0.154527
0.06	0.93	0.1601
0.06	0.94	0.163946
0.06	0.95	0.163732
0.06	0.96	0.155724
0.06	0.97	0.134637
0.06	0.98	0.0952548
0.06	0.99	0.0401866
0.06	1	0
0.07	0	0
0.07	0.01	-7.13889e-006
0.07	0.02	1.4698e-005
0.07	0.03	0.000104689
0.07	0.04	0.000297848
0.07	0.05	0.000625387
0.07	0.06	0.00111507
0.07	0.07	0.00179151
0.07	0.08	0.00267628
0.07	0.09	0.00378815
0.07	0.1	0.00514311
0.07	0.11	0.00675451
0.07	0.12	0.00863318
0.07	0.13	0.0107874
0.07	0.14	0.0132232
0.07	0.15	0.0159442
0.07	0.16	0.0189517
0.07	0.17	0.0222447
0.07	0.18	0.0258203
0.07	0.19	0.0296732
0.07	0.2	0.0337962
0.07	0.21	0.0381801
0.07	0.22	0.0428137
0.07	0.23	0.047684
0.07	0.24	0.0527763
0.07	0.25	0.0580741
0.07	0.26	0.0635594
0.07	0.27	0.069213
0.07	0.28	0.0750141
0.07	0.29	0.080941
0.07	0.3	0.0869707
0.07	0.31	0.0930795
0.07	0.32	0.0992431
0.07	0.33	0.105436
0.07	0.34	0.111634
0.07	0.35	0.11781
0.07	0.36	0.12394
0.07	0.37	0.129997
0.07	0.38	0.135956
0.07	0.39	0.141792
0.07	0.4	0.147481
0.07	0.41	0.152999
0.07	0.42	0.158324
0.07	0.43	0.163432
0.07	0.44	0.168304
0.07	0.45	0.172919
0.07	0.46	0.17726
0.07	0.47	0.18131
0.07	0.48	0.185052
0.07	0.49	0.188473
0.07	0.5	0.191561
0.07	0.51	0.194306
0.07	0.52	0.196698
0.07	0.53	0.19873
0.07	0.54	0.200399
0.07	0.55	0.2017
0.07	0.56	0.202632
0.07	0.57	0.203198
0.07	0.58	0.203399
0.07	0.59	0.203241
0.07	0.6	0.20273
0.07	0.61	0.201878
0.07	0.62	0.200695
0.07	0.63	0.199194
0.07	0.64	0.197393
0.07	0.65	0.195308
0.07	0.66	0.192961
0.07	0.67	0.190374
0.07	0.68	0.187571
0.07	0.69	0.18458
0.07	0.7	0.18143
0.07	0.71	0.178151
0.07	0.72	0.174777
0.07	0.73	0.171345
0.07	0.74	0.167893
0.07	0.75	0.164461
0.07	0.76	0.161092
0.07	0.77	0.157832
0.07	0.78	0.15473
0.07	0.79	0.151838
0.07	0.8	0.149211
0.07	0.81	0.146905
0.07	0.82	0.144981
0.07	0.83	0.143499
0.07	0.84	0.142523
0.07	0.85	0.142111
0.07	0.86	0.142315
0.07	0.87	0.143177
0.07	0.88	0.144709
0.07	0.89	0.146883
0.07	0.9	0.149593
0.07	0.91	0.152605
0.07	0.92	0.155473
0.07	0.93	0.157402
0.07	0.94	0.157044
0.07	0.95	0.152237
0.07	0.96	0.139787
0.07	0.97	0.115719
0.07	0.98	0.0773299
0.07	0.99	0.0299909
0.07	1	0
0.08	0	0
0.08	0.01	1.05293e-005
0.08	0.02	7.84394e-005
0.08	0.03	0.000238456
0.08	0.04	0.000522806
0.08	0.05	0.000960937
0.08	0.06	0.00157947
0.08	0.07	0.00240223
0.08	0.08	0.00345027
0.08	0.09	0.00474191
0.08	0.1	0.0062928
0.08	0.11	0.00811595
0.08	0.12	0.0102218
0.08	0.13	0.0126181
0.08	0.14	0.0153105
0.08	0.15	0.0183019
0.08	0.16	0.021593
0.08	0.17	0.0251821
0.08	0.18	0.0290655
0.08	0.19	0.033237
0.08	0.2	0.0376887
0.08	0.21	0.0424103
0.08	0.22	0.0473899
0.08	0.23	0.0526136
0.08	0.24	0.0580657
0.08	0.25	0.0637291
0.08	0.26	0.069585
0.08	0.27	0.0756133
0.08	0.28	0.0817925
0.08	0.29	0.0881003
0.08	0.3	0.0945132
0.08	0.31	0.101007
0.08	0.32	0.107556
0.08	0.33	0.114136
0.08	0.34	0.120721
0.08	0.35	0.127284
0.08	0.36	0.1338
0.08	0.37	0.140242
0.08	0.38	0.146585
0.08	0.39	0.152805
0.08	0.4	0.158875
0.08	0.41	0.164773
0.08	0.42	0.170474
0.08	0.43	0.175958
0.08	0.44	0.181202
0.08	0.45	0.186187
0.08	0.46	0.190894
0.08	0.47	0.195306
0.08	0.48	0.199406
0.08	0.49	0.20318
0.08	0.5	0.206615
0.08	0.51	0.2097
0.08	0.52	0.212424
0.08	0.53	0.214781
0.08	0.54	0.216764
0.08	0.55	0.218369
0.08	0.56	0.219593
0.08	0.57	0.220435
0.08	0.58	0.220898
0.08	0.59	0.220984
0.08	0.6	0.220699
0.08	0.61	0.220051
0.08	0.62	0.21905
0.08	0.63	0.217707
0.08	0.64	0.216036
0.08	0.65	0.214055
0.08	0.66	0.211781
0.08	0.67	0.209236
0.08	0.68	0.206443
0.08	0.69	0.203428
0.08	0.7	0.200217
0.08	0.71	0.196842
0.08	0.72	0.193336
0.08	0.73	0.189732
0.08	0.74	0.186068
0.08	0.75	0.182383
0.08	0.76	0.178719
0.08	0.77	0.175121
0.08	0.78	0.171632
0.08	0.79	0.168302
0.08	0.8	0.165178
0.08	0.81	0.162311
0.08	0.82	0.15975
0.08	0.83	0.157542
0.08	0.84	0.155732
0.08	0.85	0.154356
0.08	0.86	0.153441
0.08	0.87	0.152992
0.08	0.88	0.152985
0.08	0.89	0.153348
0.08	0.9	0.153933
0.08	0.91	0.154467
0.08	0.92	0.154478
0.08	0.93	0.153177
0.08	0.94	0.149299
0.08	0.95	0.140923
0.08	0.96	0.125419
0.08	0.97	0.0999539
0.08	0.98	0.0636331
0.08	0.99	0.023038
0.08	1	0
0.09	0	0
0.09	0.01	2.80556e-005
0.09	0.02	0.000142551
0.09	0.03	0.000373864
0.09	0.04	0.000751144
0.09	0.05	0.00130166
0.09	0.06	0.00205043
0.09	0.07	0.00302008
0.09	0.08	0.0042307
0.09	0.09	0.00569985
0.09	0.1	0.00744245
0.09	0.11	0.00947087
0.09	0.12	0.0117949
0.09	0.13	0.0144218
0.09	0.14	0.0173562
0.09	0.15	0.0206006
0.09	0.16	0.0241548
0.09	0.17	0.0280165
0.09	0.18	0.0321809
0.09	0.19	0.0366413
0.09	0.2	0.0413888
0.09	0.21	0.0464124
0.09	0.22	0.0516993
0.09	0.23	0.0572349
0.09	0.24	0.0630027
0.09	0.25	0.0689849
0.09	0.26	0.075162
0.09	0.27	0.0815133
0.09	0.28	0.0880167
0.09	0.29	0.0946494
0.09	0.3	0.101387
0.09	0.31	0.108206
0.09	0.32	0.115079
0.09	0.33	0.121982
0.09	0.34	0.128889
0.09	0.35	0.135772
0.09	0.36	0.142606
0.09	0.37	0.149366
0.09	0.38	0.156024
0.09	0.39	0.162556
0.09	0.4	0.168938
0.09	0.41	0.175145
0.09	0.42	0.181154
0.09	0.43	0.186943
0.09	0.44	0.19249
0.09	0.45	0.197777
0.09	0.46	0.202784
0.09	0.47	0.207494
0.09	0.48	0.21189
0.09	0.49	0.215958
0.09	0.5	0.219685
0.09	0.51	0.223059
0.09	0.52	0.226069
0.09	0.53	0.228708
0.09	0.54	0.230968
0.09	0.55	0.232844
0.09	0.56	0.234332
0.09	0.57	0.235432
0.09	0.58	0.236142
0.09	0.59	0.236465
0.09	0.6	0.236404
0.09	0.61	0.235966
0.09	0.62	0.235159
0.09	0.63	0.233992
0.09	0.64	0.232477
0.09	0.65	0.230629
0.09	0.66	0.228464
0.09	0.67	0.226002
0.09	0.68	0.223262
0.09	0.69	0.220269
0.09	0.7	0.217048
0.09	0.71	0.213628
0.09	0.72	0.210038
0.09	0.73	0.206312
0.09	0.74	0.202484
0.09	0.75	0.198591
0.09	0.76	0.194671
0.09	0.77	0.190765
0.09	0.78	0.186915
0.09	0.79	0.183162
0.09	0.8	0.179549
0.09	0.81	0.176117
0.09	0.82	0.172905
0.09	0.83	0.169949
0.09	0.84	0.167276
0.09	0.85	0.164904
0.09	0.86	0.162836
0.09	0.87	0.161055
0.09	0.88	0.159511
0.09	0.89	0.158104
0.09	0.9	0.156665
0.09	0.91	0.154906
0.09	0.92	0.152362
0.09	0.93	0.148286
0.09	0.94	0.141529
0.09	0.95	0.130435
0.09	0.96	0.112905
0.09	0.97	0.0870404
0.09	0.98	0.0531819
0.09	0.99	0.018214
0.09	1	0
0.1	0	0
0.1	0.01	4.50064e-005
0.1	0.02	0.000205392
0.1	0.03	0.000507557
0.1	0.04	0.000977566
0.1	0.05	0.00164029
0.1	0.06	0.0025189
0.1	0.07	0.00363449
0.1	0.08	0.00500593
0.1	0.09	0.00664968
0.1	0.1	0.00857973
0.1	0.11	0.0108076
0.1	0.12	0.0133421
0.1	0.13	0.0161899
0.1	0.14	0.0193548
0.1	0.15	0.0228384
0.1	0.16	0.0266397
0.1	0.17	0.0307556
0.1	0.18	0.0351807
0.1	0.19	0.0399072
0.1	0.2	0.0449256
0.1	0.21	0.050224
0.1	0.22	0.055789
0.1	0.23	0.0616051
0.1	0.24	0.0676553
0.1	0.25	0.0739209
0.1	0.26	0.080382
0.1	0.27	0.0870171
0.1	0.28	0.0938038
0.1	0.29	0.100719
0.1	0.3	0.107737
0.1	0.31	0.114834
0.1	0.32	0.121984
0.1	0.33	0.12916
0.1	0.34	0.136337
0.1	0.35	0.143489
0.1	0.36	0.150588
0.1	0.37	0.157608
0.1	0.38	0.164525
0.1	0.39	0.171312
0.1	0.4	0.177946
0.1	0.41	0.184402
0.1	0.42	0.190658
0.1	0.43	0.196691
0.1	0.44	0.202482
0.1	0.45	0.208009
0.1	0.46	0.213255
0.1	0.47	0.218203
0.1	0.48	0.222836
0.1	0.49	0.22714
0.1	0.5	0.231102
0.1	0.51	0.23471
0.1	0.52	0.237954
0.1	0.53	0.240825
0.1	0.54	0.243317
0.1	0.55	0.245422
0.1	0.56	0.247138
0.1	0.57	0.24846
0.1	0.58	0.24939
0.1	0.59	0.249926
0.1	0.6	0.250072
0.1	0.61	0.249832
0.1	0.62	0.249212
0.1	0.63	0.24822
0.1	0.64	0.246866
0.1	0.65	0.245162
0.1	0.66	0.243122
0.1	0.67	0.240763
0.1	0.68	0.238102
0.1	0.69	0.235161
0.1	0.7	0.231962
0.1	0.71	0.228532
0.1	0.72	0.224896
0.1	0.73	0.221085
0.1	0.74	0.21713
0.1	0.75	0.213065
0.1	0.76	0.208923
0.1	0.77	0.204741
0.1	0.78	0.200556
0.1	0.79	0.196404
0.1	0.8	0.192319
0.1	0.81	0.188336
0.1	0.82	0.184483
0.1	0.83	0.180784
0.1	0.84	0.177254
0.1	0.85	0.173896
0.1	0.86	0.170697
0.1	0.87	0.167622
0.1	0.88	0.164605
0.1	0.89	0.161535
0.1	0.9	0.158232
0.1	0.91	0.154416
0.1	0.92	0.149643
0.1	0.93	0.143227
0.1	0.94	0.134153
0.1	0.95	0.121019
0.1	0.96	0.102199
0.1	0.97	0.0765366
0.1	0.98	0.045171
0.1	0.99	0.0148005
0.1	1	0
0.11	0	0
0.11	0.01	6.11759e-005
0.11	0.02	0.000266079
0.11	0.03	0.000637617
0.11	0.04	0.00119892
0.11	0.05	0.00197244
0.11	0.06	0.00297931
0.11	0.07	0.00423896
0.11	0.08	0.00576877
0.11	0.09	0.00758396
0.11	0.1	0.00969737
0.11	0.11	0.0121194
0.11	0.12	0.0148582
0.11	0.13	0.017919
0.11	0.14	0.0213051
0.11	0.15	0.0250171
0.11	0.16	0.0290532
0.11	0.17	0.0334094
0.11	0.18	0.0380795
0.11	0.19	0.043055
0.11	0.2	0.0483255
0.11	0.21	0.0538785
0.11	0.22	0.0596996
0.11	0.23	0.0657728
0.11	0.24	0.0720803
0.11	0.25	0.078603
0.11	0.26	0.0853201
0.11	0.27	0.0922096
0.11	0.28	0.0992487
0.11	0.29	0.106413
0.11	0.3	0.113678
0.11	0.31	0.121018
0.11	0.32	0.128407
0.11	0.33	0.135819
0.11	0.34	0.143227
0.11	0.35	0.150604
0.11	0.36	0.157925
0.11	0.37	0.165162
0.11	0.38	0.172291
0.11	0.39	0.179286
0.11	0.4	0.186123
0.11	0.41	0.192778
0.11	0.42	0.199229
0.11	0.43	0.205454
0.11	0.44	0.211433
0.11	0.45	0.217147
0.11	0.46	0.222577
0.11	0.47	0.227707
0.11	0.48	0.232521
0.11	0.49	0.237006
0.11	0.5	0.241148
0.11	0.51	0.244937
0.11	0.52	0.248362
0.11	0.53	0.251415
0.11	0.54	0.254089
0.11	0.55	0.256377
0.11	0.56	0.258275
0.11	0.57	0.25978
0.11	0.58	0.260891
0.11	0.59	0.261607
0.11	0.6	0.26193
0.11	0.61	0.261863
0.11	0.62	0.26141
0.11	0.63	0.260577
0.11	0.64	0.259373
0.11	0.65	0.257807
0.11	0.66	0.255892
0.11	0.67	0.25364
0.11	0.68	0.251067
0.11	0.69	0.248191
0.11	0.7	0.245032
0.11	0.71	0.241612
0.11	0.72	0.237955
0.11	0.73	0.234085
0.11	0.74	0.230032
0.11	0.75	0.225823
0.11	0.76	0.221489
0.11	0.77	0.21706
0.11	0.78	0.212568
0.11	0.79	0.208043
0.11	0.8	0.203513
0.11	0.81	0.199004
0.11	0.82	0.194536
0.11	0.83	0.190122
0.11	0.84	0.185768
0.11	0.85	0.181466
0.11	0.86	0.177191
0.11	0.87	0.172899
0.11	0.88	0.168515
0.11	0.89	0.163923
0.11	0.9	0.158949
0.11	0.91	0.153324
0.11	0.92	0.146639
0.11	0.93	0.138279
0.11	0.94	0.127356
0.11	0.95	0.112713
0.11	0.96	0.0931239
0.11	0.97	0.0680039
0.11	0.98	0.0389828
0.11	0.99	0.0123352
0.11	1	0
0.12	0	0
0.12	0.01	7.65084e-005
0.12	0.02	0.000324258
0.12	0.03	0.00076316
0.12	0.04	0.00141365
0.12	0.05	0.0022958
0.12	0.06	0.00342869
0.12	0.07	0.00482995
0.12	0.08	0.00651538
0.12	0.09	0.00849877
0.12	0.1	0.0107917
0.12	0.11	0.0134034
0.12	0.12	0.0163409
0.12	0.13	0.0196085
0.12	0.14	0.0232084
0.12	0.15	0.0271404
0.12	0.16	0.0314017
0.12	0.17	0.0359876
0.12	0.18	0.0408908
0.12	0.19	0.0461022
0.12	0.2	0.0516106
0.12	0.21	0.0574027
0.12	0.22	0.0634634
0.12	0.23	0.069776
0.12	0.24	0.0763221
0.12	0.25	0.0830817
0.12	0.26	0.0900336
0.12	0.27	0.0971552
0.12	0.28	0.104423
0.12	0.29	0.111812
0.12	0.3	0.119298
0.12	0.31	0.126854
0.12	0.32	0.134453
0.12	0.33	0.14207
0.12	0.34	0.149677
0.12	0.35	0.157247
0.12	0.36	0.164755
0.12	0.37	0.172173
0.12	0.38	0.179476
0.12	0.39	0.186639
0.12	0.4	0.193638
0.12	0.41	0.20045
0.12	0.42	0.207052
0.12	0.43	0.213424
0.12	0.44	0.219545
0.12	0.45	0.225397
0.12	0.46	0.230963
0.12	0.47	0.236226
0.12	0.48	0.241171
0.12	0.49	0.245786
0.12	0.5	0.250058
0.12	0.51	0.253976
0.12	0.52	0.257531
0.12	0.53	0.260716
0.12	0.54	0.263522
0.12	0.55	0.265944
0.12	0.56	0.267979
0.12	0.57	0.269622
0.12	0.58	0.270872
0.12	0.59	0.271728
0.12	0.6	0.272191
0.12	0.61	0.272263
0.12	0.62	0.271947
0.12	0.63	0.271248
0.12	0.64	0.270172
0.12	0.65	0.268727
0.12	0.66	0.266923
0.12	0.67	0.26477
0.12	0.68	0.262281
0.12	0.69	0.259472
0.12	0.7	0.256357
0.12	0.71	0.252956
0.12	0.72	0.249289
0.12	0.73	0.245378
0.12	0.74	0.241244
0.12	0.75	0.236913
0.12	0.76	0.232411
0.12	0.77	0.227761
0.12	0.78	0.22299
0.12	0.79	0.218122
0.12	0.8	0.213178
0.12	0.81	0.208176
0.12	0.82	0.20313
0.12	0.83	0.198046
0.12	0.84	0.19292
0.12	0.85	0.187737
0.12	0.86	0.182466
0.12	0.87	0.177057
0.12	0.88	0.171432
0.12	0.89	0.16548
0.12	0.9	0.159033
0.12	0.91	0.151843
0.12	0.92	0.143541
0.12	0.93	0.13358
0.12	0.94	0.121199
0.12	0.95	0.105454
0.12	0.96	0.0854594
0.12	0.97	0.0610569
0.12	0.98	0.0341566
0.12	0.99	0.0105179
0.12	1	0
0.13	0	0
0.13	0.01	9.1044e-005
0.13	0.02	0.000379925
0.13	0.03	0.000884006
0.13	0.04	0.00162128
0.13	0.05	0.00260957
0.13	0.06	0.00386591
0.13	0.07	0.00540607
0.13	0.08	0.00724421
0.13	0.09	0.00939261
0.13	0.1	0.0118615
0.13	0.11	0.0146588
0.13	0.12	0.0177903
0.13	0.13	0.0212593
0.13	0.14	0.025067
0.13	0.15	0.0292121
0.13	0.16	0.033691
0.13	0.17	0.0384979
0.13	0.18	0.043625
0.13	0.19	0.0490621
0.13	0.2	0.0547972
0.13	0.21	0.0608163
0.13	0.22	0.0671037
0.13	0.23	0.0736418
0.13	0.24	0.0804116
0.13	0.25	0.0873924
0.13	0.26	0.0945623
0.13	0.27	0.101898
0.13	0.28	0.109376
0.13	0.29	0.11697
0.13	0.3	0.124655
0.13	0.31	0.132405
0.13	0.32	0.140191
0.13	0.33	0.147988
0.13	0.34	0.155769
0.13	0.35	0.163505
0.13	0.36	0.171171
0.13	0.37	0.178739
0.13	0.38	0.186185
0.13	0.39	0.193484
0.13	0.4	0.200611
0.13	0.41	0.207544
0.13	0.42	0.21426
0.13	0.43	0.22074
0.13	0.44	0.226963
0.13	0.45	0.232912
0.13	0.46	0.23857
0.13	0.47	0.243922
0.13	0.48	0.248954
0.13	0.49	0.253654
0.13	0.5	0.258009
0.13	0.51	0.26201
0.13	0.52	0.265649
0.13	0.53	0.268918
0.13	0.54	0.27181
0.13	0.55	0.27432
0.13	0.56	0.276445
0.13	0.57	0.278182
0.13	0.58	0.279528
0.13	0.59	0.280482
0.13	0.6	0.281046
0.13	0.61	0.28122
0.13	0.62	0.281006
0.13	0.63	0.280409
0.13	0.64	0.279433
0.13	0.65	0.278084
0.13	0.66	0.276369
0.13	0.67	0.274297
0.13	0.68	0.271879
0.13	0.69	0.269126
0.13	0.7	0.266051
0.13	0.71	0.262669
0.13	0.72	0.258996
0.13	0.73	0.255049
0.13	0.74	0.250847
0.13	0.75	0.246409
0.13	0.76	0.241756
0.13	0.77	0.236908
0.13	0.78	0.231884
0.13	0.79	0.226702
0.13	0.8	0.221378
0.13	0.81	0.215924
0.13	0.82	0.210346
0.13	0.83	0.204645
0.13	0.84	0.198811
0.13	0.85	0.192824
0.13	0.86	0.186649
0.13	0.87	0.180236
0.13	0.88	0.173508
0.13	0.89	0.166359
0.13	0.9	0.158636
0.13	0.91	0.150112
0.13	0.92	0.140457
0.13	0.93	0.129192
0.13	0.94	0.115671
0.13	0.95	0.0991391
0.13	0.96	0.0789871
0.13	0.97	0.0553755
0.13	0.98	0.0303525
0.13	0.99	0.00915141
0.13	1	0
0.14	0	0
0.14	0.01	0.000104879
0.14	0.02	0.000433294
0.14	0.03	0.00100043
0.14	0.04	0.00182207
0.14	0.05	0.00291392
0.14	0.06	0.00429102
0.14	0.07	0.00596729
0.14	0.08	0.00795519
0.14	0.09	0.0102654
0.14	0.1	0.0129067
0.14	0.11	0.0158858
0.14	0.12	0.0192071
0.14	0.13	0.0228728
0.14	0.14	0.0268829
0.14	0.15	0.0312352
0.14	0.16	0.035925
0.14	0.17	0.0409458
0.14	0.18	0.0462886
0.14	0.19	0.0519427
0.14	0.2	0.0578951
0.14	0.21	0.064131
0.14	0.22	0.0706341
0.14	0.23	0.0773859
0.14	0.24	0.0843668
0.14	0.25	0.0915555
0.14	0.26	0.0989293
0.14	0.27	0.106464
0.14	0.28	0.114136
0.14	0.29	0.121919
0.14	0.3	0.129786
0.14	0.31	0.13771
0.14	0.32	0.145664
0.14	0.33	0.15362
0.14	0.34	0.161552
0.14	0.35	0.16943
0.14	0.36	0.17723
0.14	0.37	0.184923
0.14	0.38	0.192485
0.14	0.39	0.199891
0.14	0.4	0.207116
0.14	0.41	0.214138
0.14	0.42	0.220937
0.14	0.43	0.227491
0.14	0.44	0.233781
0.14	0.45	0.239792
0.14	0.46	0.245506
0.14	0.47	0.250909
0.14	0.48	0.255988
0.14	0.49	0.260732
0.14	0.5	0.26513
0.14	0.51	0.269173
0.14	0.52	0.272853
0.14	0.53	0.276164
0.14	0.54	0.2791
0.14	0.55	0.281656
0.14	0.56	0.283829
0.14	0.57	0.285617
0.14	0.58	0.287018
0.14	0.59	0.28803
0.14	0.6	0.288655
0.14	0.61	0.288893
0.14	0.62	0.288746
0.14	0.63	0.288216
0.14	0.64	0.287308
0.14	0.65	0.286026
0.14	0.66	0.284375
0.14	0.67	0.282362
0.14	0.68	0.279995
0.14	0.69	0.277283
0.14	0.7	0.274235
0.14	0.71	0.270864
0.14	0.72	0.267181
0.14	0.73	0.2632
0.14	0.74	0.258934
0.14	0.75	0.2544
0.14	0.76	0.249611
0.14	0.77	0.244582
0.14	0.78	0.239329
0.14	0.79	0.233863
0.14	0.8	0.228195
0.14	0.81	0.22233
0.14	0.82	0.216271
0.14	0.83	0.210012
0.14	0.84	0.203541
0.14	0.85	0.196833
0.14	0.86	0.189855
0.14	0.87	0.182555
0.14	0.88	0.174862
0.14	0.89	0.166679
0.14	0.9	0.157864
0.14	0.91	0.148217
0.14	0.92	0.137443
0.14	0.93	0.125127
0.14	0.94	0.110726
0.14	0.95	0.0936475
0.14	0.96	0.0735082
0.14	0.97	0.0507004
0.14	0.98	0.0273205
0.14	0.99	0.00810417
0.14	1	0
0.15	0	0
0.15	0.01	0.000118137
0.15	0.02	0.000484694
0.15	0.03	0.00111295
0.15	0.04	0.00201669
0.15	0.05	0.00320959
0.15	0.06	0.00470478
0.15	0.07	0.00651434
0.15	0.08	0.00864899
0.15	0.09	0.0111178
0.15	0.1	0.0139281
0.15	0.11	0.0170851
0.15	0.12	0.0205919
0.15	0.13	0.0244496
0.15	0.14	0.028657