TITLE = vorticity
VARIABLES = "x", "y", "phi"
Zone T = "BLOCK1", i=101, j=101, F=POINT


0	0	0
0	0.01	-0.00258019
0	0.02	-0.0109413
0	0.03	-0.0220637
0	0.04	-0.0332121
0	0.05	-0.0424059
0	0.06	-0.0482516
0	0.07	-0.0497411
0	0.08	-0.0461114
0	0.09	-0.0367565
0	0.1	-0.0211763
0	0.11	0.00105337
0	0.12	0.0302964
0	0.13	0.0668643
0	0.14	0.111018
0	0.15	0.162968
0	0.16	0.222871
0	0.17	0.290824
0	0.18	0.366866
0	0.19	0.450967
0	0.2	0.543028
0	0.21	0.642878
0	0.22	0.750271
0	0.23	0.864886
0	0.24	0.986322
0	0.25	1.11411
0	0.26	1.24769
0	0.27	1.38647
0	0.28	1.52974
0	0.29	1.67677
0	0.3	1.82676
0	0.31	1.97887
0	0.32	2.13221
0	0.33	2.28589
0	0.34	2.43895
0	0.35	2.59048
0	0.36	2.73953
0	0.37	2.88516
0	0.38	3.02647
0	0.39	3.16259
0	0.4	3.29267
0	0.41	3.41592
0	0.42	3.53161
0	0.43	3.63907
0	0.44	3.73769
0	0.45	3.82696
0	0.46	3.90642
0	0.47	3.97571
0	0.48	4.03456
0	0.49	4.08278
0	0.5	4.12026
0	0.51	4.14699
0	0.52	4.16304
0	0.53	4.16855
0	0.54	4.16377
0	0.55	4.14898
0	0.56	4.12458
0	0.57	4.091
0	0.58	4.04875
0	0.59	3.99838
0	0.6	3.94052
0	0.61	3.87581
0	0.62	3.80494
0	0.63	3.72865
0	0.64	3.64769
0	0.65	3.56284
0	0.66	3.47491
0	0.67	3.38472
0	0.68	3.2931
0	0.69	3.20093
0	0.7	3.10909
0	0.71	3.01846
0	0.72	2.93001
0	0.73	2.8447
0	0.74	2.76359
0	0.75	2.68781
0	0.76	2.6186
0	0.77	2.55739
0	0.78	2.50582
0	0.79	2.46584
0	0.8	2.43985
0	0.81	2.4308
0	0.82	2.44247
0	0.83	2.47974
0	0.84	2.54896
0	0.85	2.65854
0	0.86	2.81966
0	0.87	3.0473
0	0.88	3.36167
0	0.89	3.79019
0	0.9	4.37046
0	0.91	5.15484
0	0.92	6.21806
0	0.93	7.67062
0	0.94	9.68369
0	0.95	12.5342
0	0.96	16.6743
0	0.97	22.7559
0	0.98	31.0611
0	0.99	36.9035
0	1	0
0.01	0	-0.00258019
0.01	0.01	-0.00575062
0.01	0.02	-0.00891565
0.01	0.03	-0.0126565
0.01	0.04	-0.0160543
0.01	0.05	-0.0179461
0.01	0.06	-0.0172878
0.01	0.07	-0.0132191
0.01	0.08	-0.00504551
0.01	0.09	0.00779588
0.01	0.1	0.0257655
0.01	0.11	0.0492427
0.01	0.12	0.0785403
0.01	0.13	0.113913
0.01	0.14	0.155562
0.01	0.15	0.203639
0.01	0.16	0.258244
0.01	0.17	0.319427
0.01	0.18	0.387186
0.01	0.19	0.461466
0.01	0.2	0.542156
0.01	0.21	0.629093
0.01	0.22	0.722057
0.01	0.23	0.820771
0.01	0.24	0.924905
0.01	0.25	1.03408
0.01	0.26	1.14785
0.01	0.27	1.26574
0.01	0.28	1.38722
0.01	0.29	1.51173
0.01	0.3	1.63864
0.01	0.31	1.76733
0.01	0.32	1.89713
0.01	0.33	2.02735
0.01	0.34	2.1573
0.01	0.35	2.28626
0.01	0.36	2.41352
0.01	0.37	2.53838
0.01	0.38	2.66015
0.01	0.39	2.77815
0.01	0.4	2.89171
0.01	0.41	3.00023
0.01	0.42	3.10312
0.01	0.43	3.19981
0.01	0.44	3.28981
0.01	0.45	3.37267
0.01	0.46	3.44799
0.01	0.47	3.51541
0.01	0.48	3.57466
0.01	0.49	3.62551
0.01	0.5	3.66779
0.01	0.51	3.70141
0.01	0.52	3.72633
0.01	0.53	3.74257
0.01	0.54	3.75022
0.01	0.55	3.74944
0.01	0.56	3.74042
0.01	0.57	3.72344
0.01	0.58	3.69881
0.01	0.59	3.6669
0.01	0.6	3.62814
0.01	0.61	3.58299
0.01	0.62	3.53195
0.01	0.63	3.47557
0.01	0.64	3.41444
0.01	0.65	3.34917
0.01	0.66	3.28041
0.01	0.67	3.20884
0.01	0.68	3.13516
0.01	0.69	3.06012
0.01	0.7	2.98447
0.01	0.71	2.90903
0.01	0.72	2.83464
0.01	0.73	2.7622
0.01	0.74	2.69268
0.01	0.75	2.62712
0.01	0.76	2.56669
0.01	0.77	2.51269
0.01	0.78	2.46662
0.01	0.79	2.43025
0.01	0.8	2.40566
0.01	0.81	2.3954
0.01	0.82	2.4026
0.01	0.83	2.43113
0.01	0.84	2.48587
0.01	0.85	2.57296
0.01	0.86	2.70012
0.01	0.87	2.87712
0.01	0.88	3.11623
0.01	0.89	3.43273
0.01	0.9	3.8455
0.01	0.91	4.37732
0.01	0.92	5.05462
0.01	0.93	5.90465
0.01	0.94	6.94424
0.01	0.95	8.13969
0.01	0.96	9.26391
0.01	0.97	9.36839
0.01	0.98	4.6253
0.01	0.99	-22.2492
0.01	1	-163.096
0.02	0	-0.0108806
0.02	0.01	-0.00892637
0.02	0.02	-0.00631234
0.02	0.03	-0.00358789
0.02	0.04	-0.000396329
0.02	0.05	0.00396781
0.02	0.06	0.0102646
0.02	0.07	0.019189
0.02	0.08	0.0313358
0.02	0.09	0.0471991
0.02	0.1	0.0671825
0.02	0.11	0.0916118
0.02	0.12	0.120746
0.02	0.13	0.154783
0.02	0.14	0.193872
0.02	0.15	0.238109
0.02	0.16	0.287546
0.02	0.17	0.342194
0.02	0.18	0.402017
0.02	0.19	0.466941
0.02	0.2	0.53685
0.02	0.21	0.611589
0.02	0.22	0.690964
0.02	0.23	0.774745
0.02	0.24	0.862666
0.02	0.25	0.954424
0.02	0.26	1.04969
0.02	0.27	1.1481
0.02	0.28	1.24926
0.02	0.29	1.35275
0.02	0.3	1.45815
0.02	0.31	1.56498
0.02	0.32	1.67279
0.02	0.33	1.78107
0.02	0.34	1.88934
0.02	0.35	1.9971
0.02	0.36	2.10383
0.02	0.37	2.20904
0.02	0.38	2.31221
0.02	0.39	2.41287
0.02	0.4	2.51052
0.02	0.41	2.60471
0.02	0.42	2.69497
0.02	0.43	2.78088
0.02	0.44	2.86204
0.02	0.45	2.93806
0.02	0.46	3.00861
0.02	0.47	3.07335
0.02	0.48	3.13202
0.02	0.49	3.18436
0.02	0.5	3.23018
0.02	0.51	3.26931
0.02	0.52	3.30162
0.02	0.53	3.32706
0.02	0.54	3.34557
0.02	0.55	3.35718
0.02	0.56	3.36195
0.02	0.57	3.35998
0.02	0.58	3.35143
0.02	0.59	3.33649
0.02	0.6	3.31541
0.02	0.61	3.28847
0.02	0.62	3.256
0.02	0.63	3.21838
0.02	0.64	3.17601
0.02	0.65	3.12936
0.02	0.66	3.0789
0.02	0.67	3.02517
0.02	0.68	2.96873
0.02	0.69	2.91019
0.02	0.7	2.85021
0.02	0.71	2.78946
0.02	0.72	2.72869
0.02	0.73	2.66869
0.02	0.74	2.61032
0.02	0.75	2.55452
0.02	0.76	2.50234
0.02	0.77	2.45493
0.02	0.78	2.4136
0.02	0.79	2.37986
0.02	0.8	2.35545
0.02	0.81	2.34242
0.02	0.82	2.34314
0.02	0.83	2.36047
0.02	0.84	2.3977
0.02	0.85	2.45872
0.02	0.86	2.54796
0.02	0.87	2.67034
0.02	0.88	2.83104
0.02	0.89	3.03495
0.02	0.9	3.28552
0.02	0.91	3.58242
0.02	0.92	3.91662
0.02	0.93	4.25943
0.02	0.94	4.5364
0.02	0.95	4.55975
0.02	0.96	3.83623
0.02	0.97	0.957874
0.02	0.98	-8.54962
0.02	0.99	-39.7613
0.02	1	-127.945
0.03	0	-0.0218422
0.03	0.01	-0.0127636
0.03	0.02	-0.0038195
0.03	0.03	0.00501612
0.03	0.04	0.0140917
0.03	0.05	0.0239472
0.03	0.06	0.0351778
0.03	0.07	0.0483505
0.03	0.08	0.0639652
0.03	0.09	0.0824427
0.03	0.1	0.104125
0.03	0.11	0.129283
0.03	0.12	0.158123
0.03	0.13	0.190793
0.03	0.14	0.227391
0.03	0.15	0.267972
0.03	0.16	0.312548
0.03	0.17	0.361097
0.03	0.18	0.41356
0.03	0.19	0.46985
0.03	0.2	0.52985
0.03	0.21	0.593419
0.03	0.22	0.660388
0.03	0.23	0.73057
0.03	0.24	0.803753
0.03	0.25	0.879712
0.03	0.26	0.958199
0.03	0.27	1.03896
0.03	0.28	1.12171
0.03	0.29	1.20617
0.03	0.3	1.29205
0.03	0.31	1.37903
0.03	0.32	1.46681
0.03	0.33	1.55507
0.03	0.34	1.64347
0.03	0.35	1.7317
0.03	0.36	1.81942
0.03	0.37	1.9063
0.03	0.38	1.992
0.03	0.39	2.07619
0.03	0.4	2.15854
0.03	0.41	2.23873
0.03	0.42	2.31643
0.03	0.43	2.39134
0.03	0.44	2.46313
0.03	0.45	2.53152
0.03	0.46	2.59622
0.03	0.47	2.65695
0.03	0.48	2.71347
0.03	0.49	2.76554
0.03	0.5	2.81294
0.03	0.51	2.85546
0.03	0.52	2.89295
0.03	0.53	2.92525
0.03	0.54	2.95224
0.03	0.55	2.97384
0.03	0.56	2.99
0.03	0.57	3.00069
0.03	0.58	3.00592
0.03	0.59	3.00574
0.03	0.6	3.00025
0.03	0.61	2.98957
0.03	0.62	2.97387
0.03	0.63	2.95336
0.03	0.64	2.92828
0.03	0.65	2.89894
0.03	0.66	2.86565
0.03	0.67	2.82881
0.03	0.68	2.78883
0.03	0.69	2.74617
0.03	0.7	2.70136
0.03	0.71	2.65495
0.03	0.72	2.60756
0.03	0.73	2.55986
0.03	0.74	2.51259
0.03	0.75	2.46657
0.03	0.76	2.42268
0.03	0.77	2.38192
0.03	0.78	2.3454
0.03	0.79	2.31437
0.03	0.8	2.29021
0.03	0.81	2.27449
0.03	0.82	2.26892
0.03	0.83	2.27541
0.03	0.84	2.29597
0.03	0.85	2.33261
0.03	0.86	2.38718
0.03	0.87	2.46095
0.03	0.88	2.55398
0.03	0.89	2.66397
0.03	0.9	2.78424
0.03	0.91	2.90007
0.03	0.92	2.98171
0.03	0.93	2.96998
0.03	0.94	2.7442
0.03	0.95	2.04378
0.03	0.96	0.256403
0.03	0.97	-4.20165
0.03	0.98	-15.7041
0.03	0.99	-45.2338
0.03	1	-102.043
0.04	0	-0.0328169
0.04	0.01	-0.0164708
0.04	0.02	-0.00122131
0.04	0.03	0.0133794
0.04	0.04	0.0277981
0.04	0.05	0.0425431
0.04	0.06	0.0581284
0.04	0.07	0.0750346
0.04	0.08	0.0936844
0.04	0.09	0.114432
0.04	0.1	0.137563
0.04	0.11	0.163294
0.04	0.12	0.191784
0.04	0.13	0.223139
0.04	0.14	0.257416
0.04	0.15	0.294635
0.04	0.16	0.334777
0.04	0.17	0.377797
0.04	0.18	0.423622
0.04	0.19	0.472158
0.04	0.2	0.523293
0.04	0.21	0.576899
0.04	0.22	0.632834
0.04	0.23	0.690947
0.04	0.24	0.751079
0.04	0.25	0.813062
0.04	0.26	0.876724
0.04	0.27	0.941889
0.04	0.28	1.00838
0.04	0.29	1.07601
0.04	0.3	1.1446
0.04	0.31	1.21397
0.04	0.32	1.28392
0.04	0.33	1.35428
0.04	0.34	1.42485
0.04	0.35	1.49545
0.04	0.36	1.56588
0.04	0.37	1.63595
0.04	0.38	1.70547
0.04	0.39	1.77424
0.04	0.4	1.84205
0.04	0.41	1.9087
0.04	0.42	1.974
0.04	0.43	2.03772
0.04	0.44	2.09966
0.04	0.45	2.15961
0.04	0.46	2.21734
0.04	0.47	2.27266
0.04	0.48	2.32534
0.04	0.49	2.37518
0.04	0.5	2.42196
0.04	0.51	2.4655
0.04	0.52	2.50561
0.04	0.53	2.54209
0.04	0.54	2.57479
0.04	0.55	2.60355
0.04	0.56	2.62823
0.04	0.57	2.64873
0.04	0.58	2.66496
0.04	0.59	2.67684
0.04	0.6	2.68435
0.04	0.61	2.68748
0.04	0.62	2.68625
0.04	0.63	2.68074
0.04	0.64	2.67104
0.04	0.65	2.6573
0.04	0.66	2.6397
0.04	0.67	2.61846
0.04	0.68	2.59388
0.04	0.69	2.56625
0.04	0.7	2.53596
0.04	0.71	2.50344
0.04	0.72	2.46915
0.04	0.73	2.43364
0.04	0.74	2.39751
0.04	0.75	2.36143
0.04	0.76	2.32615
0.04	0.77	2.29248
0.04	0.78	2.26133
0.04	0.79	2.2337
0.04	0.8	2.21066
0.04	0.81	2.19336
0.04	0.82	2.18299
0.04	0.83	2.18072
0.04	0.84	2.18758
0.04	0.85	2.20427
0.04	0.86	2.23085
0.04	0.87	2.26621
0.04	0.88	2.30715
0.04	0.89	2.34698
0.04	0.9	2.37296
0.04	0.91	2.36187
0.04	0.92	2.27161
0.04	0.93	2.02419
0.04	0.94	1.46876
0.04	0.95	0.294181
0.04	0.96	-2.19186
0.04	0.97	-7.63127
0.04	0.98	-19.8923
0.04	0.99	-46.0298
0.04	1	-83.7973
0.05	0	-0.0420592
0.05	0.01	-0.0190876
0.05	0.02	0.00202132
0.05	0.03	0.0219235
0.05	0.04	0.0411756
0.05	0.05	0.060289
0.05	0.06	0.0797351
0.05	0.07	0.0999361
0.05	0.08	0.121255
0.05	0.09	0.14399
0.05	0.1	0.168374
0.05	0.11	0.194582
0.05	0.12	0.222729
0.05	0.13	0.252885
0.05	0.14	0.285077
0.05	0.15	0.319295
0.05	0.16	0.355503
0.05	0.17	0.393639
0.05	0.18	0.433622
0.05	0.19	0.475359
0.05	0.2	0.518743
0.05	0.21	0.563663
0.05	0.22	0.610002
0.05	0.23	0.657643
0.05	0.24	0.706466
0.05	0.25	0.756356
0.05	0.26	0.807198
0.05	0.27	0.858883
0.05	0.28	0.911305
0.05	0.29	0.964363
0.05	0.3	1.01796
0.05	0.31	1.072
0.05	0.32	1.12641
0.05	0.33	1.18108
0.05	0.34	1.23594
0.05	0.35	1.29091
0.05	0.36	1.34591
0.05	0.37	1.40084
0.05	0.38	1.45562
0.05	0.39	1.51017
0.05	0.4	1.56439
0.05	0.41	1.61817
0.05	0.42	1.67142
0.05	0.43	1.72401
0.05	0.44	1.77582
0.05	0.45	1.82673
0.05	0.46	1.8766
0.05	0.47	1.92526
0.05	0.48	1.97258
0.05	0.49	2.01838
0.05	0.5	2.06249
0.05	0.51	2.10474
0.05	0.52	2.14494
0.05	0.53	2.18292
0.05	0.54	2.2185
0.05	0.55	2.25148
0.05	0.56	2.2817
0.05	0.57	2.30899
0.05	0.58	2.33318
0.05	0.59	2.35415
0.05	0.6	2.37176
0.05	0.61	2.3859
0.05	0.62	2.3965
0.05	0.63	2.4035
0.05	0.64	2.40688
0.05	0.65	2.40665
0.05	0.66	2.40285
0.05	0.67	2.39558
0.05	0.68	2.38497
0.05	0.69	2.37119
0.05	0.7	2.35449
0.05	0.71	2.33513
0.05	0.72	2.31345
0.05	0.73	2.28986
0.05	0.74	2.2648
0.05	0.75	2.2388
0.05	0.76	2.21243
0.05	0.77	2.18636
0.05	0.78	2.1613
0.05	0.79	2.13801
0.05	0.8	2.11732
0.05	0.81	2.10003
0.05	0.82	2.08694
0.05	0.83	2.07868
0.05	0.84	2.07563
0.05	0.85	2.07765
0.05	0.86	2.08369
0.05	0.87	2.0912
0.05	0.88	2.09508
0.05	0.89	2.086
0.05	0.9	2.04744
0.05	0.91	1.95042
0.05	0.92	1.74354
0.05	0.93	1.33318
0.05	0.94	0.541864
0.05	0.95	-0.984473
0.05	0.96	-3.98845
0.05	0.97	-10.062
0.05	0.98	-22.364
0.05	0.99	-44.8876
0.05	1	-70.9226
0.06	0	-0.0485428
0.06	0.01	-0.0198474
0.06	0.02	0.00646892
0.06	0.03	0.0311201
0.06	0.04	0.0546943
0.06	0.05	0.077697
0.06	0.06	0.100568
0.06	0.07	0.123685
0.06	0.08	0.147363
0.06	0.09	0.171854
0.06	0.1	0.197347
0.06	0.11	0.223979
0.06	0.12	0.251831
0.06	0.13	0.280946
0.06	0.14	0.311324
0.06	0.15	0.342939
0.06	0.16	0.37574
0.06	0.17	0.409656
0.06	0.18	0.444607
0.06	0.19	0.4805
0.06	0.2	0.517242
0.06	0.21	0.554736
0.06	0.22	0.592888
0.06	0.23	0.631609
0.06	0.24	0.670816
0.06	0.25	0.71043
0.06	0.26	0.750386
0.06	0.27	0.790623
0.06	0.28	0.831091
0.06	0.29	0.871748
0.06	0.3	0.912563
0.06	0.31	0.95351
0.06	0.32	0.994571
0.06	0.33	1.03573
0.06	0.34	1.07699
0.06	0.35	1.11834
0.06	0.36	1.15977
0.06	0.37	1.20129
0.06	0.38	1.24288
0.06	0.39	1.28455
0.06	0.4	1.32629
0.06	0.41	1.36806
0.06	0.42	1.40985
0.06	0.43	1.45163
0.06	0.44	1.49334
0.06	0.45	1.53494
0.06	0.46	1.57634
0.06	0.47	1.61748
0.06	0.48	1.65825
0.06	0.49	1.69855
0.06	0.5	1.73825
0.06	0.51	1.77722
0.06	0.52	1.81531
0.06	0.53	1.85236
0.06	0.54	1.8882
0.06	0.55	1.92265
0.06	0.56	1.95553
0.06	0.57	1.98665
0.06	0.58	2.01583
0.06	0.59	2.04287
0.06	0.6	2.06759
0.06	0.61	2.08982
0.06	0.62	2.10941
0.06	0.63	2.12621
0.06	0.64	2.14011
0.06	0.65	2.15099
0.06	0.66	2.1588
0.06	0.67	2.16351
0.06	0.68	2.16512
0.06	0.69	2.16367
0.06	0.7	2.15926
0.06	0.71	2.15203
0.06	0.72	2.14217
0.06	0.73	2.12993
0.06	0.74	2.11563
0.06	0.75	2.09962
0.06	0.76	2.08234
0.06	0.77	2.06426
0.06	0.78	2.04593
0.06	0.79	2.02792
0.06	0.8	2.01081
0.06	0.81	1.99518
0.06	0.82	1.9815
0.06	0.83	1.97008
0.06	0.84	1.96087
0.06	0.85	1.95323
0.06	0.86	1.94547
0.06	0.87	1.93424
0.06	0.88	1.9133
0.06	0.89	1.87158
0.06	0.9	1.78973
0.06	0.91	1.63383
0.06	0.92	1.34375
0.06	0.93	0.810676
0.06	0.94	-0.167699
0.06	0.95	-1.97891
0.06	0.96	-5.38156
0.06	0.97	-11.834
0.06	0.98	-23.757
0.06	0.99	-43.0044
0.06	1	-61.6697
0.07	0	-0.0517302
0.07	0.01	-0.0182302
0.07	0.02	0.0125862
0.07	0.03	0.0414049
0.07	0.04	0.0687963
0.07	0.05	0.0952414
0.07	0.06	0.121146
0.07	0.07	0.146848
0.07	0.08	0.172621
0.07	0.09	0.198677
0.07	0.1	0.225171
0.07	0.11	0.252205
0.07	0.12	0.279837
0.07	0.13	0.308084
0.07	0.14	0.336931
0.07	0.15	0.366339
0.07	0.16	0.39625
0.07	0.17	0.42659
0.07	0.18	0.457279
0.07	0.19	0.488235
0.07	0.2	0.519374
0.07	0.21	0.550615
0.07	0.22	0.581886
0.07	0.23	0.61312
0.07	0.24	0.644263
0.07	0.25	0.67527
0.07	0.26	0.706107
0.07	0.27	0.736753
0.07	0.28	0.767199
0.07	0.29	0.797446
0.07	0.3	0.827507
0.07	0.31	0.857405
0.07	0.32	0.887171
0.07	0.33	0.916844
0.07	0.34	0.946471
0.07	0.35	0.976101
0.07	0.36	1.00579
0.07	0.37	1.03559
0.07	0.38	1.06556
0.07	0.39	1.09575
0.07	0.4	1.12621
0.07	0.41	1.15699
0.07	0.42	1.18813
0.07	0.43	1.21965
0.07	0.44	1.25157
0.07	0.45	1.28391
0.07	0.46	1.31665
0.07	0.47	1.34978
0.07	0.48	1.38326
0.07	0.49	1.41704
0.07	0.5	1.45104
0.07	0.51	1.4852
0.07	0.52	1.5194
0.07	0.53	1.55352
0.07	0.54	1.58742
0.07	0.55	1.62096
0.07	0.56	1.65397
0.07	0.57	1.68626
0.07	0.58	1.71765
0.07	0.59	1.74794
0.07	0.6	1.77692
0.07	0.61	1.80439
0.07	0.62	1.83015
0.07	0.63	1.85399
0.07	0.64	1.87574
0.07	0.65	1.8952
0.07	0.66	1.91224
0.07	0.67	1.92671
0.07	0.68	1.93851
0.07	0.69	1.94757
0.07	0.7	1.95387
0.07	0.71	1.95741
0.07	0.72	1.95826
0.07	0.73	1.95651
0.07	0.74	1.95235
0.07	0.75	1.94597
0.07	0.76	1.93766
0.07	0.77	1.92774
0.07	0.78	1.91657
0.07	0.79	1.90456
0.07	0.8	1.8921
0.07	0.81	1.87957
0.07	0.82	1.86722
0.07	0.83	1.85515
0.07	0.84	1.84304
0.07	0.85	1.82997
0.07	0.86	1.81393
0.07	0.87	1.79107
0.07	0.88	1.7544
0.07	0.89	1.69149
0.07	0.9	1.58041
0.07	0.91	1.38236
0.07	0.92	1.02842
0.07	0.93	0.395
0.07	0.94	-0.741692
0.07	0.95	-2.79042
0.07	0.96	-6.49401
0.07	0.97	-13.1299
0.07	0.98	-24.4541
0.07	0.99	-40.9239
0.07	1	-54.8479
0.08	0	-0.0513983
0.08	0.01	-0.0139263
0.08	0.02	0.0207146
0.08	0.03	0.0531391
0.08	0.04	0.0838687
0.08	0.05	0.113343
0.08	0.06	0.141928
0.08	0.07	0.169922
0.08	0.08	0.197562
0.08	0.09	0.225025
0.08	0.1	0.252435
0.08	0.11	0.279868
0.08	0.12	0.30736
0.08	0.13	0.334913
0.08	0.14	0.362498
0.08	0.15	0.39007
0.08	0.16	0.417565
0.08	0.17	0.444914
0.08	0.18	0.472041
0.08	0.19	0.498871
0.08	0.2	0.525332
0.08	0.21	0.55136
0.08	0.22	0.576899
0.08	0.23	0.601905
0.08	0.24	0.626344
0.08	0.25	0.650197
0.08	0.26	0.673457
0.08	0.27	0.69613
0.08	0.28	0.718236
0.08	0.29	0.739808
0.08	0.3	0.76089
0.08	0.31	0.781538
0.08	0.32	0.801816
0.08	0.33	0.821799
0.08	0.34	0.841568
0.08	0.35	0.861212
0.08	0.36	0.880823
0.08	0.37	0.900496
0.08	0.38	0.920328
0.08	0.39	0.940416
0.08	0.4	0.960854
0.08	0.41	0.981733
0.08	0.42	1.00314
0.08	0.43	1.02515
0.08	0.44	1.04784
0.08	0.45	1.07126
0.08	0.46	1.09547
0.08	0.47	1.12049
0.08	0.48	1.14635
0.08	0.49	1.17305
0.08	0.5	1.20056
0.08	0.51	1.22887
0.08	0.52	1.25792
0.08	0.53	1.28763
0.08	0.54	1.31791
0.08	0.55	1.34865
0.08	0.56	1.37972
0.08	0.57	1.41096
0.08	0.58	1.44221
0.08	0.59	1.47328
0.08	0.6	1.50398
0.08	0.61	1.53409
0.08	0.62	1.56339
0.08	0.63	1.59166
0.08	0.64	1.61866
0.08	0.65	1.64419
0.08	0.66	1.66802
0.08	0.67	1.68994
0.08	0.68	1.70978
0.08	0.69	1.72736
0.08	0.7	1.74256
0.08	0.71	1.75528
0.08	0.72	1.76544
0.08	0.73	1.77304
0.08	0.74	1.7781
0.08	0.75	1.7807
0.08	0.76	1.78096
0.08	0.77	1.77905
0.08	0.78	1.7752
0.08	0.79	1.76962
0.08	0.8	1.76258
0.08	0.81	1.75427
0.08	0.82	1.74481
0.08	0.83	1.73411
0.08	0.84	1.72173
0.08	0.85	1.70658
0.08	0.86	1.68648
0.08	0.87	1.65726
0.08	0.88	1.61132
0.08	0.89	1.53498
0.08	0.9	1.40369
0.08	0.91	1.17372
0.08	0.92	0.767426
0.08	0.93	0.0476723
0.08	0.94	-1.22615
0.08	0.95	-3.47152
0.08	0.96	-7.39166
0.08	0.97	-14.0672
0.08	0.98	-24.7014
0.08	0.99	-38.8862
0.08	1	-49.6733
0.09	0	-0.0475185
0.09	0.01	-0.00678238
0.09	0.02	0.0310821
0.09	0.03	0.0666011
0.09	0.04	0.100231
0.09	0.05	0.13236
0.09	0.06	0.163308
0.09	0.07	0.193336
0.09	0.08	0.222643
0.09	0.09	0.251375
0.09	0.1	0.27963
0.09	0.11	0.307462
0.09	0.12	0.334889
0.09	0.13	0.361901
0.09	0.14	0.388461
0.09	0.15	0.414518
0.09	0.16	0.440011
0.09	0.17	0.464872
0.09	0.18	0.489032
0.09	0.19	0.512424
0.09	0.2	0.534991
0.09	0.21	0.55668
0.09	0.22	0.577452
0.09	0.23	0.597279
0.09	0.24	0.616146
0.09	0.25	0.634054
0.09	0.26	0.651015
0.09	0.27	0.667057
0.09	0.28	0.68222
0.09	0.29	0.69656
0.09	0.3	0.710141
0.09	0.31	0.723043
0.09	0.32	0.735354
0.09	0.33	0.74717
0.09	0.34	0.758599
0.09	0.35	0.769752
0.09	0.36	0.780748
0.09	0.37	0.79171
0.09	0.38	0.802761
0.09	0.39	0.814028
0.09	0.4	0.825637
0.09	0.41	0.837711
0.09	0.42	0.850369
0.09	0.43	0.863727
0.09	0.44	0.877892
0.09	0.45	0.892963
0.09	0.46	0.90903
0.09	0.47	0.92617
0.09	0.48	0.944446
0.09	0.49	0.963908
0.09	0.5	0.984588
0.09	0.51	1.0065
0.09	0.52	1.02965
0.09	0.53	1.05399
0.09	0.54	1.0795
0.09	0.55	1.10611
0.09	0.56	1.13372
0.09	0.57	1.16222
0.09	0.58	1.19148
0.09	0.59	1.22135
0.09	0.6	1.25164
0.09	0.61	1.28218
0.09	0.62	1.31274
0.09	0.63	1.3431
0.09	0.64	1.37302
0.09	0.65	1.40226
0.09	0.66	1.43057
0.09	0.67	1.45771
0.09	0.68	1.48342
0.09	0.69	1.50748
0.09	0.7	1.52968
0.09	0.71	1.54983
0.09	0.72	1.56776
0.09	0.73	1.58334
0.09	0.74	1.59648
0.09	0.75	1.60713
0.09	0.76	1.61529
0.09	0.77	1.62098
0.09	0.78	1.62428
0.09	0.79	1.62528
0.09	0.8	1.62409
0.09	0.81	1.62077
0.09	0.82	1.61531
0.09	0.83	1.60752
0.09	0.84	1.59687
0.09	0.85	1.58217
0.09	0.86	1.56113
0.09	0.87	1.52933
0.09	0.88	1.47862
0.09	0.89	1.39402
0.09	0.9	1.24836
0.09	0.91	0.992942
0.09	0.92	0.541871
0.09	0.93	-0.25369
0.09	0.94	-1.64604
0.09	0.95	-4.05054
0.09	0.96	-8.11581
0.09	0.97	-14.7306
0.09	0.98	-24.6599
0.09	0.99	-36.9867
0.09	1	-45.6327
0.1	0	-0.0401761
0.1	0.01	0.00324685
0.1	0.02	0.0438243
0.1	0.03	0.0819915
0.1	0.04	0.118134
0.1	0.05	0.152584
0.1	0.06	0.185613
0.1	0.07	0.217443
0.1	0.08	0.248237
0.1	0.09	0.278114
0.1	0.1	0.307147
0.1	0.11	0.335371
0.1	0.12	0.362789
0.1	0.13	0.389381
0.1	0.14	0.415105
0.1	0.15	0.439909
0.1	0.16	0.46373
0.1	0.17	0.486507
0.1	0.18	0.508177
0.1	0.19	0.528684
0.1	0.2	0.547978
0.1	0.21	0.566022
0.1	0.22	0.582789
0.1	0.23	0.598266
0.1	0.24	0.612453
0.1	0.25	0.625366
0.1	0.26	0.637033
0.1	0.27	0.647497
0.1	0.28	0.656816
0.1	0.29	0.66506
0.1	0.3	0.672311
0.1	0.31	0.678663
0.1	0.32	0.684221
0.1	0.33	0.689099
0.1	0.34	0.693419
0.1	0.35	0.697311
0.1	0.36	0.700911
0.1	0.37	0.704359
0.1	0.38	0.7078
0.1	0.39	0.711379
0.1	0.4	0.715242
0.1	0.41	0.719537
0.1	0.42	0.724406
0.1	0.43	0.729989
0.1	0.44	0.736421
0.1	0.45	0.74383
0.1	0.46	0.752336
0.1	0.47	0.76205
0.1	0.48	0.773069
0.1	0.49	0.78548
0.1	0.5	0.799354
0.1	0.51	0.814747
0.1	0.52	0.831697
0.1	0.53	0.850224
0.1	0.54	0.870327
0.1	0.55	0.891984
0.1	0.56	0.915152
0.1	0.57	0.939762
0.1	0.58	0.965725
0.1	0.59	0.992924
0.1	0.6	1.02122
0.1	0.61	1.05045
0.1	0.62	1.08043
0.1	0.63	1.11096
0.1	0.64	1.1418
0.1	0.65	1.17272
0.1	0.66	1.20345
0.1	0.67	1.23374
0.1	0.68	1.26331
0.1	0.69	1.2919
0.1	0.7	1.31922
0.1	0.71	1.34504
0.1	0.72	1.3691
0.1	0.73	1.39119
0.1	0.74	1.41112
0.1	0.75	1.42873
0.1	0.76	1.4439
0.1	0.77	1.45654
0.1	0.78	1.46658
0.1	0.79	1.474
0.1	0.8	1.47878
0.1	0.81	1.48087
0.1	0.82	1.48015
0.1	0.83	1.47634
0.1	0.84	1.46885
0.1	0.85	1.45643
0.1	0.86	1.43669
0.1	0.87	1.40499
0.1	0.88	1.3526
0.1	0.89	1.26323
0.1	0.9	1.10706
0.1	0.91	0.830622
0.1	0.92	0.340479
0.1	0.93	-0.521749
0.1	0.94	-2.01517
0.1	0.95	-4.54462
0.1	0.96	-8.69659
0.1	0.97	-15.1841
0.1	0.98	-24.4352
0.1	0.99	-35.2533
0.1	1	-42.3878
0.11	0	-0.0295159
0.11	0.01	0.0161374
0.11	0.02	0.059008
0.11	0.03	0.0994452
0.11	0.04	0.137765
0.11	0.05	0.174242
0.11	0.06	0.209103
0.11	0.07	0.242525
0.11	0.08	0.274643
0.11	0.09	0.305545
0.11	0.1	0.335283
0.11	0.11	0.363875
0.11	0.12	0.391312
0.11	0.13	0.417563
0.11	0.14	0.442584
0.11	0.15	0.466321
0.11	0.16	0.488713
0.11	0.17	0.509704
0.11	0.18	0.529236
0.11	0.19	0.547263
0.11	0.2	0.563745
0.11	0.21	0.578654
0.11	0.22	0.591978
0.11	0.23	0.603713
0.11	0.24	0.613875
0.11	0.25	0.62249
0.11	0.26	0.6296
0.11	0.27	0.635263
0.11	0.28	0.639547
0.11	0.29	0.642536
0.11	0.3	0.644325
0.11	0.31	0.645021
0.11	0.32	0.644742
0.11	0.33	0.643613
0.11	0.34	0.641771
0.11	0.35	0.639358
0.11	0.36	0.636523
0.11	0.37	0.633421
0.11	0.38	0.630209
0.11	0.39	0.627047
0.11	0.4	0.624097
0.11	0.41	0.621521
0.11	0.42	0.619479
0.11	0.43	0.618127
0.11	0.44	0.617621
0.11	0.45	0.618106
0.11	0.46	0.619726
0.11	0.47	0.622612
0.11	0.48	0.626888
0.11	0.49	0.632668
0.11	0.5	0.640051
0.11	0.51	0.649125
0.11	0.52	0.65996
0.11	0.53	0.672611
0.11	0.54	0.687116
0.11	0.55	0.70349
0.11	0.56	0.721732
0.11	0.57	0.741814
0.11	0.58	0.763688
0.11	0.59	0.787281
0.11	0.6	0.812492
0.11	0.61	0.8392
0.11	0.62	0.867254
0.11	0.63	0.896478
0.11	0.64	0.926674
0.11	0.65	0.95762
0.11	0.66	0.989071
0.11	0.67	1.02077
0.11	0.68	1.05243
0.11	0.69	1.08377
0.11	0.7	1.1145
0.11	0.71	1.14431
0.11	0.72	1.17292
0.11	0.73	1.20005
0.11	0.74	1.22542
0.11	0.75	1.2488
0.11	0.76	1.26996
0.11	0.77	1.28872
0.11	0.78	1.3049
0.11	0.79	1.31836
0.11	0.8	1.32896
0.11	0.81	1.33657
0.11	0.82	1.34098
0.11	0.83	1.34183
0.11	0.84	1.33846
0.11	0.85	1.32958
0.11	0.86	1.31271
0.11	0.87	1.28296
0.11	0.88	1.23102
0.11	0.89	1.13926
0.11	0.9	0.975278
0.11	0.91	0.681091
0.11	0.92	0.156657
0.11	0.93	-0.763751
0.11	0.94	-2.34179
0.11	0.95	-4.96587
0.11	0.96	-9.15818
0.11	0.97	-15.4771
0.11	0.98	-24.0964
0.11	0.99	-33.6831
0.11	1	-39.7125
0.12	0	-0.0157057
0.12	0.01	0.0318252
0.12	0.02	0.0766507
0.12	0.03	0.119043
0.12	0.04	0.159255
0.12	0.05	0.197504
0.12	0.06	0.23397
0.12	0.07	0.268796
0.12	0.08	0.30208
0.12	0.09	0.333887
0.12	0.1	0.364246
0.12	0.11	0.393159
0.12	0.12	0.420605
0.12	0.13	0.446547
0.12	0.14	0.470935
0.12	0.15	0.493714
0.12	0.16	0.514828
0.12	0.17	0.53422
0.12	0.18	0.551842
0.12	0.19	0.567654
0.12	0.2	0.581625
0.12	0.21	0.593737
0.12	0.22	0.603988
0.12	0.23	0.612386
0.12	0.24	0.618957
0.12	0.25	0.623739
0.12	0.26	0.626787
0.12	0.27	0.628168
0.12	0.28	0.627964
0.12	0.29	0.62627
0.12	0.3	0.623192
0.12	0.31	0.61885
0.12	0.32	0.613372
0.12	0.33	0.606897
0.12	0.34	0.599571
0.12	0.35	0.59155
0.12	0.36	0.582995
0.12	0.37	0.57407
0.12	0.38	0.564946
0.12	0.39	0.555794
0.12	0.4	0.546788
0.12	0.41	0.538102
0.12	0.42	0.529907
0.12	0.43	0.522374
0.12	0.44	0.515668
0.12	0.45	0.509951
0.12	0.46	0.505378
0.12	0.47	0.502097
0.12	0.48	0.500248
0.12	0.49	0.499962
0.12	0.5	0.501357
0.12	0.51	0.504541
0.12	0.52	0.50961
0.12	0.53	0.516643
0.12	0.54	0.525705
0.12	0.55	0.536843
0.12	0.56	0.550085
0.12	0.57	0.565442
0.12	0.58	0.582899
0.12	0.59	0.602421
0.12	0.6	0.62395
0.12	0.61	0.647401
0.12	0.62	0.672661
0.12	0.63	0.699596
0.12	0.64	0.728038
0.12	0.65	0.757799
0.12	0.66	0.78866
0.12	0.67	0.820379
0.12	0.68	0.852693
0.12	0.69	0.885318
0.12	0.7	0.917954
0.12	0.71	0.950289
0.12	0.72	0.982004
0.12	0.73	1.01278
0.12	0.74	1.04229
0.12	0.75	1.07024
0.12	0.76	1.09634
0.12	0.77	1.12029
0.12	0.78	1.14186
0.12	0.79	1.16081
0.12	0.8	1.17691
0.12	0.81	1.18992
0.12	0.82	1.19955
0.12	0.83	1.2054
0.12	0.84	1.20673
0.12	0.85	1.20223
0.12	0.86	1.18927
0.12	0.87	1.16274
0.12	0.88	1.11269
0.12	0.89	1.02019
0.12	0.9	0.850321
0.12	0.91	0.540989
0.12	0.92	-0.0134819
0.12	0.93	-0.984082
0.12	0.94	-2.63153
0.12	0.95	-5.32399
0.12	0.96	-9.52074
0.12	0.97	-15.6472
0.12	0.98	-23.6881
0.12	0.99	-32.2612
0.12	1	-37.4537
0.13	0	0.00108744
0.13	0.01	0.0502266
0.13	0.02	0.0967374
0.13	0.03	0.140826
0.13	0.04	0.182684
0.13	0.05	0.222481
0.13	0.06	0.260352
0.13	0.07	0.296401
0.13	0.08	0.330699
0.13	0.09	0.363281
0.13	0.1	0.394159
0.13	0.11	0.423317
0.13	0.12	0.450725
0.13	0.13	0.476336
0.13	0.14	0.500097
0.13	0.15	0.521952
0.13	0.16	0.541845
0.13	0.17	0.559724
0.13	0.18	0.575545
0.13	0.19	0.589275
0.13	0.2	0.600893
0.13	0.21	0.610388
0.13	0.22	0.617767
0.13	0.23	0.62305
0.13	0.24	0.626272
0.13	0.25	0.627484
0.13	0.26	0.626751
0.13	0.27	0.624151
0.13	0.28	0.619779
0.13	0.29	0.613741
0.13	0.3	0.606156
0.13	0.31	0.597155
0.13	0.32	0.586879
0.13	0.33	0.575479
0.13	0.34	0.563115
0.13	0.35	0.549953
0.13	0.36	0.536166
0.13	0.37	0.521933
0.13	0.38	0.507433
0.13	0.39	0.492851
0.13	0.4	0.478372
0.13	0.41	0.464178
0.13	0.42	0.450452
0.13	0.43	0.437374
0.13	0.44	0.425119
0.13	0.45	0.413856
0.13	0.46	0.403751
0.13	0.47	0.39496
0.13	0.48	0.387632
0.13	0.49	0.381907
0.13	0.5	0.377916
0.13	0.51	0.375779
0.13	0.52	0.375603
0.13	0.53	0.377484
0.13	0.54	0.381505
0.13	0.55	0.387732
0.13	0.56	0.396218
0.13	0.57	0.406995
0.13	0.58	0.42008
0.13	0.59	0.435467
0.13	0.6	0.453131
0.13	0.61	0.473022
0.13	0.62	0.495065
0.13	0.63	0.519161
0.13	0.64	0.545181
0.13	0.65	0.572972
0.13	0.66	0.602351
0.13	0.67	0.633105
0.13	0.68	0.664997
0.13	0.69	0.697763
0.13	0.7	0.731116
0.13	0.71	0.764748
0.13	0.72	0.798333
0.13	0.73	0.831535
0.13	0.74	0.864011
0.13	0.75	0.895413
0.13	0.76	0.925401
0.13	0.77	0.95364
0.13	0.78	0.979808
0.13	0.79	1.0036
0.13	0.8	1.0247
0.13	0.81	1.04281
0.13	0.82	1.05757
0.13	0.83	1.0685
0.13	0.84	1.07483
0.13	0.85	1.07517
0.13	0.86	1.06678
0.13	0.87	1.04428
0.13	0.88	0.997082
0.13	0.89	0.904966
0.13	0.9	0.730646
0.13	0.91	0.408325
0.13	0.92	-0.172317
0.13	0.93	-1.18566
0.13	0.94	-2.88875
0.13	0.95	-5.62732
0.13	0.96	-9.80126
0.13	0.97	-15.7235
0.13	0.98	-23.2396
0.13	0.99	-30.9688
0.13	1	-35.5054
0.14	0	0.0207119
0.14	0.01	0.0712528
0.14	0.02	0.119233
0.14	0.03	0.1648
0.14	0.04	0.208095
0.14	0.05	0.249239
0.14	0.06	0.288327
0.14	0.07	0.325428
0.14	0.08	0.360581
0.14	0.09	0.393799
0.14	0.1	0.425071
0.14	0.11	0.454369
0.14	0.12	0.481648
0.14	0.13	0.506855
0.14	0.14	0.529933
0.14	0.15	0.550822
0.14	0.16	0.569468
0.14	0.17	0.585823
0.14	0.18	0.599847
0.14	0.19	0.611514
0.14	0.2	0.620808
0.14	0.21	0.62773
0.14	0.22	0.632295
0.14	0.23	0.634532
0.14	0.24	0.634488
0.14	0.25	0.632225
0.14	0.26	0.627818
0.14	0.27	0.62136
0.14	0.28	0.612956
0.14	0.29	0.602725
0.14	0.3	0.590801
0.14	0.31	0.577328
0.14	0.32	0.56246
0.14	0.33	0.546363
0.14	0.34	0.52921
0.14	0.35	0.511182
0.14	0.36	0.492466
0.14	0.37	0.473253
0.14	0.38	0.453738
0.14	0.39	0.434116
0.14	0.4	0.414584
0.14	0.41	0.395335
0.14	0.42	0.376562
0.14	0.43	0.358452
0.14	0.44	0.341188
0.14	0.45	0.324947
0.14	0.46	0.309899
0.14	0.47	0.296206
0.14	0.48	0.28402
0.14	0.49	0.273487
0.14	0.5	0.26474
0.14	0.51	0.257904
0.14	0.52	0.253092
0.14	0.53	0.250407
0.14	0.54	0.249939
0.14	0.55	0.251764
0.14	0.56	0.255948
0.14	0.57	0.262539
0.14	0.58	0.271571
0.14	0.59	0.28306
0.14	0.6	0.297005
0.14	0.61	0.313383
0.14	0.62	0.33215
0.14	0.63	0.353239
0.14	0.64	0.376558
0.14	0.65	0.401986
0.14	0.66	0.429379
0.14	0.67	0.458558
0.14	0.68	0.48932
0.14	0.69	0.521432
0.14	0.7	0.554629
0.14	0.71	0.588625
0.14	0.72	0.623106
0.14	0.73	0.657738
0.14	0.74	0.692173
0.14	0.75	0.726048
0.14	0.76	0.758993
0.14	0.77	0.79064
0.14	0.78	0.82062
0.14	0.79	0.848571
0.14	0.8	0.874131
0.14	0.81	0.896931
0.14	0.82	0.916557
0.14	0.83	0.932478
0.14	0.84	0.943871
0.14	0.85	0.949268
0.14	0.86	0.945813
0.14	0.87	0.92782
0.14	0.88	0.884071
0.14	0.89	0.793086
0.14	0.9	0.615378
0.14	0.91	0.281886
0.14	0.92	-0.321411
0.14	0.93	-1.37066
0.14	0.94	-3.11715
0.14	0.95	-5.88325
0.14	0.96	-10.014
0.14	0.97	-15.7282
0.14	0.98	-22.7694
0.14	0.99	-29.7874
0.14	1	-33.7931
0.15	0	0.0430391
0.15	0.01	0.0948187
0.15	0.02	0.144089
0.15	0.03	0.190951
0.15	0.04	0.235495
0.15	0.05	0.277802
0.15	0.06	0.317928
0.15	0.07	0.355908
0.15	0.08	0.391752
0.15	0.09	0.425449
0.15	0.1	0.456967
0.15	0.11	0.486264
0.15	0.12	0.513282
0.15	0.13	0.537962
0.15	0.14	0.56024
0.15	0.15	0.580055
0.15	0.16	0.597354
0.15	0.17	0.612092
0.15	0.18	0.624233
0.15	0.19	0.633756
0.15	0.2	0.640655
0.15	0.21	0.644937
0.15	0.22	0.646628
0.15	0.23	0.645769
0.15	0.24	0.642415
0.15	0.25	0.63664
0.15	0.26	0.628534
0.15	0.27	0.618201
0.15	0.28	0.605761
0.15	0.29	0.591347
0.15	0.3	0.575107
0.15	0.31	0.5572
0.15	0.32	0.537797
0.15	0.33	0.517081
0.15	0.34	0.49524
0.15	0.35	0.472472
0.15	0.36	0.44898
0.15	0.37	0.424972
0.15	0.38	0.400656
0.15	0.39	0.376242
0.15	0.4	0.351941
0.15	0.41	0.327958
0.15	0.42	0.304495
0.15	0.43	0.281748
0.15	0.44	0.259909
0.15	0.45	0.239159
0.15	0.46	0.219671